 vasp.5.4.4.18Apr17-6-g9f103f2a35 (build Feb 24 2022 11:29:53) complex          
  
 executed on             LinuxIFC date 2023.12.16  17:58:01
 running on   80 total cores
 distrk:  each k-point on   80 cores,    1 groups
 distr:  one band on NCORES_PER_BAND=   1 cores,   80 groups


--------------------------------------------------------------------------------------------------------


 INCAR:
 POTCAR:    PAW_PBE V 08Apr2002                   
 POTCAR:    PAW_PBE Ni 02Aug2007                  
 POTCAR:    PAW_PBE Na 08Apr2002                  
 POTCAR:    PAW_PBE O 08Apr2002                   
 POTCAR:    PAW_PBE F 08Apr2002                   

 ----------------------------------------------------------------------------- 
|                                                                             |
|           W    W    AA    RRRRR   N    N  II  N    N   GGGG   !!!           |
|           W    W   A  A   R    R  NN   N  II  NN   N  G    G  !!!           |
|           W    W  A    A  R    R  N N  N  II  N N  N  G       !!!           |
|           W WW W  AAAAAA  RRRRR   N  N N  II  N  N N  G  GGG   !            |
|           WW  WW  A    A  R   R   N   NN  II  N   NN  G    G                |
|           W    W  A    A  R    R  N    N  II  N    N   GGGG   !!!           |
|                                                                             |
|      For optimal performance we recommend to set                            |
|        NCORE= 4 - approx SQRT( number of cores)                             |
|      NCORE specifies how many cores store one orbital (NPAR=cpu/NCORE).     |
|      This setting can  greatly improve the performance of VASP for DFT.     |
|      The default,   NCORE=1            might be grossly inefficient         |
|      on modern multi-core architectures or massively parallel machines.     |
|      Do your own testing !!!!                                               |
|      Unfortunately you need to use the default for GW and RPA calculations. |
|      (for HF NCORE is supported but not extensively tested yet)             |
|                                                                             |
 ----------------------------------------------------------------------------- 

 POTCAR:    PAW_PBE V 08Apr2002                   
   SHA256 =  ef546ef2c242197bded3fc1a147275a02051e3e940c74ac2c3352ea17412f79c V/
   COPYR  = (c) Copyright 08Apr2002 Georg Kresse                                
   COPYR  = This file is part of the software VASP. Any use, copying, and all ot
   COPYR  = If you do not have a valid VASP license, you may not use, copy or di
   VRHFIN =V: p6 d4 s1                                                          
   LEXCH  = PE                                                                  
   EATOM  =   170.8679 eV,   12.5584 Ry                                         
                                                                                
   TITEL  = PAW_PBE V 08Apr2002                                                 
   LULTRA =        F    use ultrasoft PP ?                                      
   IUNSCR =        1    unscreen: 0-lin 1-nonlin 2-no                           
   RPACOR =    2.000    partial core radius                                     
   POMASS =   50.941; ZVAL   =    5.000    mass and valenz                      
   RCORE  =    2.700    outmost cutoff radius                                   
   RWIGS  =    2.500; RWIGS  =    1.323    wigner-seitz radius (au A)           
   ENMAX  =  192.543; ENMIN  =  144.408 eV                                      
   RCLOC  =    1.779    cutoff for local pot                                    
   LCOR   =        T    correct aug charges                                     
   LPAW   =        T    paw PP                                                  
   EAUG   =  358.662                                                            
   DEXC   =    0.000                                                            
   RMAX   =    2.768    core radius for proj-oper                               
   RAUG   =    1.300    factor for augmentation sphere                          
   RDEP   =    2.762    radius for radial grids                                 
   RDEPT  =    2.240    core radius for aug-charge                              
                                                                                
   Atomic configuration                                                         
    9 entries                                                                   
     n  l   j            E        occ.                                          
     1  0  0.50     -5360.7193   2.0000                                         
     2  0  0.50      -598.4546   2.0000                                         
     2  1  1.50      -499.0155   6.0000                                         
     3  0  0.50       -66.5711   2.0000                                         
     3  1  1.50       -40.5282   6.0000                                         
     3  2  2.50        -2.4291   4.0000                                         
     4  0  0.50        -3.8743   1.0000                                         
     4  1  0.50        -2.7212   0.0000                                         
     4  3  2.50        -1.3606   0.0000                                         
   Description                                                                  
     l       E           TYP  RCUT    TYP  RCUT                                 
     2     -2.4290901     23  2.700                                             
     2     -3.7896727     23  2.700                                             
     0     -3.8742752     23  2.700                                             
     0     27.2116520     23  2.700                                             
     1     -2.7211652     23  2.700                                             
     1     27.2116520     23  2.700                                             
  local pseudopotential read in
  partial core-charges read in
  partial kinetic energy density read in
  atomic valenz-charges read in
  non local Contribution for L=           2  read in
    real space projection operators read in
  non local Contribution for L=           2  read in
    real space projection operators read in
  non local Contribution for L=           0  read in
    real space projection operators read in
  non local Contribution for L=           0  read in
    real space projection operators read in
  non local Contribution for L=           1  read in
    real space projection operators read in
  non local Contribution for L=           1  read in
    real space projection operators read in
    PAW grid and wavefunctions read in
 
   number of l-projection  operators is LMAX  =           6
   number of lm-projection operators is LMMAX =          18
 
 POTCAR:    PAW_PBE Ni 02Aug2007                  
   SHA256 =  0534bc51ca8003dfef23f56753fef9fdd3e22eac8d719fccacb59f3e6b7a69c7 Ni
   COPYR  = (c) Copyright 02Aug2007 Georg Kresse                                
   COPYR  = This file is part of the software VASP. Any use, copying, and all ot
   COPYR  = If you do not have a valid VASP license, you may not use, copy or di
   VRHFIN =Ni:                                                                  
   LEXCH  = PE                                                                  
   EATOM  =  1077.6739 eV,   79.2068 Ry                                         
                                                                                
   TITEL  = PAW_PBE Ni 02Aug2007                                                
   LULTRA =        F    use ultrasoft PP ?                                      
   IUNSCR =        1    unscreen: 0-lin 1-nonlin 2-no                           
   RPACOR =    2.000    partial core radius                                     
   POMASS =   58.690; ZVAL   =   10.000    mass and valenz                      
   RCORE  =    2.300    outmost cutoff radius                                   
   RWIGS  =    2.430; RWIGS  =    1.286    wigner-seitz radius (au A)           
   ENMAX  =  269.532; ENMIN  =  202.149 eV                                      
   RCLOC  =    1.201    cutoff for local pot                                    
   LCOR   =        T    correct aug charges                                     
   LPAW   =        T    paw PP                                                  
   EAUG   =  544.565                                                            
   DEXC   =    0.000                                                            
   RMAX   =    2.357    core radius for proj-oper                               
   RAUG   =    1.300    factor for augmentation sphere                          
   RDEP   =    2.390    radius for radial grids                                 
   RDEPT  =    1.838    core radius for aug-charge                              
                                                                                
   Atomic configuration                                                         
    9 entries                                                                   
     n  l   j            E        occ.                                          
     1  0  0.50     -8206.4253   2.0000                                         
     2  0  0.50      -976.1748   2.0000                                         
     2  1  1.50      -839.0571   6.0000                                         
     3  0  0.50      -105.9991   2.0000                                         
     3  1  1.50       -66.4603   6.0000                                         
     3  2  2.50        -4.6458   9.0000                                         
     4  0  0.50        -4.4926   1.0000                                         
     4  1  1.50        -4.0817   0.0000                                         
     4  3  2.50        -1.3606   0.0000                                         
   Description                                                                  
     l       E           TYP  RCUT    TYP  RCUT                                 
     2     -4.6457903     23  2.300                                             
     2     -6.0063729     23  2.300                                             
     0     -4.4925590     23  2.300                                             
     0      5.0102601     23  2.300                                             
     1     -2.7211652     23  2.300                                             
     1     16.5183231     23  2.300                                             
  local pseudopotential read in
  partial core-charges read in
  partial kinetic energy density read in
  atomic valenz-charges read in
  non local Contribution for L=           2  read in
    real space projection operators read in
  non local Contribution for L=           2  read in
    real space projection operators read in
  non local Contribution for L=           0  read in
    real space projection operators read in
  non local Contribution for L=           0  read in
    real space projection operators read in
  non local Contribution for L=           1  read in
    real space projection operators read in
  non local Contribution for L=           1  read in
    real space projection operators read in
    PAW grid and wavefunctions read in
 
   number of l-projection  operators is LMAX  =           6
   number of lm-projection operators is LMMAX =          18
 
 POTCAR:    PAW_PBE Na 08Apr2002                  
   SHA256 =  28de979e29d3a0ce6b912090ec41d2d3fb15239b988ee49a7215736a384d2747 Na
   COPYR  = (c) Copyright 08Apr2002 Georg Kresse                                
   COPYR  = This file is part of the software VASP. Any use, copying, and all ot
   COPYR  = If you do not have a valid VASP license, you may not use, copy or di
   VRHFIN =Na: s1p0                                                             
   LEXCH  = PE                                                                  
   EATOM  =     5.1581 eV,    0.3791 Ry                                         
                                                                                
   TITEL  = PAW_PBE Na 08Apr2002                                                
   LULTRA =        F    use ultrasoft PP ?                                      
   IUNSCR =        1    unscreen: 0-lin 1-nonlin 2-no                           
   RPACOR =    1.800    partial core radius                                     
   POMASS =   22.990; ZVAL   =    1.000    mass and valenz                      
   RCORE  =    2.200    outmost cutoff radius                                   
   RWIGS  =    3.320; RWIGS  =    1.757    wigner-seitz radius (au A)           
   ENMAX  =  101.968; ENMIN  =   76.476 eV                                      
   ICORE  =        2    local potential                                         
   LCOR   =        T    correct aug charges                                     
   LPAW   =        T    paw PP                                                  
   EAUG   =  250.695                                                            
   DEXC   =    0.000                                                            
   RMAX   =    2.245    core radius for proj-oper                               
   RAUG   =    1.300    factor for augmentation sphere                          
   RDEP   =    2.259    radius for radial grids                                 
   RDEPT  =    2.115    core radius for aug-charge                              
                                                                                
   Atomic configuration                                                         
    6 entries                                                                   
     n  l   j            E        occ.                                          
     1  0  0.50     -1033.6933   2.0000                                         
     2  0  0.50       -56.7526   2.0000                                         
     2  1  1.50       -28.6721   6.0000                                         
     3  0  0.50        -2.7440   1.0000                                         
     3  1  0.50        -1.3606   0.0000                                         
     3  2  1.50        -1.3606   0.0000                                         
   Description                                                                  
     l       E           TYP  RCUT    TYP  RCUT                                 
     0     -2.7439560     23  2.200                                             
     0     27.2116520     23  2.200                                             
     1     -1.3605826     23  2.200                                             
     2     -1.3605826     23  2.200                                             
  local pseudopotential read in
  partial core-charges read in
  partial kinetic energy density read in
  atomic valenz-charges read in
  non local Contribution for L=           0  read in
    real space projection operators read in
  non local Contribution for L=           0  read in
    real space projection operators read in
  non local Contribution for L=           1  read in
    real space projection operators read in
    PAW grid and wavefunctions read in
 
   number of l-projection  operators is LMAX  =           3
   number of lm-projection operators is LMMAX =           5
 
 POTCAR:    PAW_PBE O 08Apr2002                   
   SHA256 =  818f92134a0a090dccd8ba1447fa70422a3b330e708bb4f08108d8ae51209ddf O/
   COPYR  = (c) Copyright 08Apr2002 Georg Kresse                                
   COPYR  = This file is part of the software VASP. Any use, copying, and all ot
   COPYR  = If you do not have a valid VASP license, you may not use, copy or di
   VRHFIN =O: s2p4                                                              
   LEXCH  = PE                                                                  
   EATOM  =   432.3788 eV,   31.7789 Ry                                         
                                                                                
   TITEL  = PAW_PBE O 08Apr2002                                                 
   LULTRA =        F    use ultrasoft PP ?                                      
   IUNSCR =        1    unscreen: 0-lin 1-nonlin 2-no                           
   RPACOR =    1.200    partial core radius                                     
   POMASS =   16.000; ZVAL   =    6.000    mass and valenz                      
   RCORE  =    1.520    outmost cutoff radius                                   
   RWIGS  =    1.550; RWIGS  =    0.820    wigner-seitz radius (au A)           
   ENMAX  =  400.000; ENMIN  =  300.000 eV                                      
   ICORE  =        2    local potential                                         
   LCOR   =        T    correct aug charges                                     
   LPAW   =        T    paw PP                                                  
   EAUG   =  605.392                                                            
   DEXC   =    0.000                                                            
   RMAX   =    1.553    core radius for proj-oper                               
   RAUG   =    1.300    factor for augmentation sphere                          
   RDEP   =    1.550    radius for radial grids                                 
   RDEPT  =    1.329    core radius for aug-charge                              
                                                                                
   Atomic configuration                                                         
    4 entries                                                                   
     n  l   j            E        occ.                                          
     1  0  0.50      -514.6923   2.0000                                         
     2  0  0.50       -23.9615   2.0000                                         
     2  1  0.50        -9.0305   4.0000                                         
     3  2  1.50        -9.5241   0.0000                                         
   Description                                                                  
     l       E           TYP  RCUT    TYP  RCUT                                 
     0    -23.9615318     23  1.200                                             
     0     -9.5240782     23  1.200                                             
     1     -9.0304911     23  1.520                                             
     1      8.1634956     23  1.520                                             
     2     -9.5240782      7  1.500                                             
  local pseudopotential read in
  partial core-charges read in
  partial kinetic energy density read in
  kinetic energy density of atom read in
  atomic valenz-charges read in
  non local Contribution for L=           0  read in
    real space projection operators read in
  non local Contribution for L=           0  read in
    real space projection operators read in
  non local Contribution for L=           1  read in
    real space projection operators read in
  non local Contribution for L=           1  read in
    real space projection operators read in
    PAW grid and wavefunctions read in
 
   number of l-projection  operators is LMAX  =           4
   number of lm-projection operators is LMMAX =           8
 
 POTCAR:    PAW_PBE F 08Apr2002                   
   SHA256 =  53c630871ac675939349fc2b976745ee17808dedc90b5bdde026bc81f0faf456 F/
   COPYR  = (c) Copyright 08Apr2002 Georg Kresse                                
   COPYR  = This file is part of the software VASP. Any use, copying, and all ot
   COPYR  = If you do not have a valid VASP license, you may not use, copy or di
   VRHFIN =F: s2p5                                                              
   LEXCH  = PE                                                                  
   EATOM  =   659.6475 eV,   48.4827 Ry                                         
                                                                                
   TITEL  = PAW_PBE F 08Apr2002                                                 
   LULTRA =        F    use ultrasoft PP ?                                      
   IUNSCR =        1    unscreen: 0-lin 1-nonlin 2-no                           
   RPACOR =    1.200    partial core radius                                     
   POMASS =   18.998; ZVAL   =    7.000    mass and valenz                      
   RCORE  =    1.520    outmost cutoff radius                                   
   RWIGS  =    1.500; RWIGS  =    0.794    wigner-seitz radius (au A)           
   ENMAX  =  400.000; ENMIN  =  300.000 eV                                      
   ICORE  =        2    local potential                                         
   LCOR   =        T    correct aug charges                                     
   LPAW   =        T    paw PP                                                  
   EAUG   =  613.614                                                            
   RMAX   =    1.555    core radius for proj-oper                               
   RAUG   =    1.300    factor for augmentation sphere                          
   RDEP   =    1.539    radius for radial grids                                 
   RDEPT  =    1.299    core radius for aug-charge                              
                                                                                
   Atomic configuration                                                         
    4 entries                                                                   
     n  l   j            E        occ.                                          
     1  0  0.50      -663.3661   2.0000                                         
     2  0  0.50       -29.8995   2.0000                                         
     2  1  0.50       -11.1114   5.0000                                         
     3  2  1.50       -10.8847   0.0000                                         
   Description                                                                  
     l       E           TYP  RCUT    TYP  RCUT                                 
     0    -29.8995018     23  1.200                                             
     0     -9.5240782     23  1.200                                             
     1    -11.1113914     23  1.520                                             
     1      1.3605826     23  1.520                                             
     2    -10.8846608      7  1.500                                             
  local pseudopotential read in
  partial core-charges read in
  partial kinetic energy density read in
  atomic valenz-charges read in
  non local Contribution for L=           0  read in
    real space projection operators read in
  non local Contribution for L=           0  read in
    real space projection operators read in
  non local Contribution for L=           1  read in
    real space projection operators read in
  non local Contribution for L=           1  read in
    real space projection operators read in
    PAW grid and wavefunctions read in
 
   number of l-projection  operators is LMAX  =           4
   number of lm-projection operators is LMMAX =           8
 

 ----------------------------------------------------------------------------- 
|                                                                             |
|  ADVICE TO THIS USER RUNNING 'VASP/VAMP'   (HEAR YOUR MASTER'S VOICE ...):  |
|                                                                             |
|      You have a (more or less) 'large supercell' and for larger cells       |
|      it might be more efficient to use real space projection opertators     |
|      So try LREAL= Auto  in the INCAR   file.                               |
|      Mind:          For very  accurate calculation you might also keep the  |
|      reciprocal projection scheme          (i.e. LREAL=.FALSE.)             |
|                                                                             |
 ----------------------------------------------------------------------------- 

  PAW_PBE V 08Apr2002                   :
 energy of atom  1       EATOM= -170.8679
 kinetic energy error for atom=    0.0010 (will be added to EATOM!!)
  PAW_PBE Ni 02Aug2007                  :
 energy of atom  2       EATOM=-1077.6739
 kinetic energy error for atom=    0.0101 (will be added to EATOM!!)
  PAW_PBE Na 08Apr2002                  :
 energy of atom  3       EATOM=   -5.1581
 kinetic energy error for atom=    0.0001 (will be added to EATOM!!)
  PAW_PBE O 08Apr2002                   :
 energy of atom  4       EATOM= -432.3788
 kinetic energy error for atom=    0.1156 (will be added to EATOM!!)
  PAW_PBE F 08Apr2002                   :
 energy of atom  5       EATOM= -659.6475
 kinetic energy error for atom=    0.1978 (will be added to EATOM!!)
 
 
 POSCAR: Na0.67V0.5Ni0.5O1.925F0.15 (3*3*1 super 
  positions in direct lattice
  velocities in cartesian coordinates
 exchange correlation table for  LEXCH =        8
   RHO(1)=    0.500       N(1)  =     2000
   RHO(2)=  100.500       N(2)  =     4000
 


--------------------------------------------------------------------------------------------------------


 ion  position               nearest neighbor table
   1  0.993  0.995  0.005-  62 1.82  34 1.95  46 1.99  39 2.01  42 2.03  31 2.03  17 2.86  13 2.87
                             3 2.93   5 2.97   7 3.11   9 3.11  19 3.16  20 3.20  21 3.20
   2  0.986  0.004  0.509-  32 1.78  33 1.81  40 1.87  44 1.93  49 2.02  45 2.11  14 2.79   6 2.95
                            18 2.95  10 2.97   4 2.99  21 3.10  20 3.20  19 3.35
   3  0.989  0.326  0.004-  55 1.82  34 1.93  38 1.98  50 2.02  35 2.04  31 2.05  15 2.85  13 2.87
                             1 2.93   5 2.94  11 3.05   9 3.08  20 3.20  24 3.22  23 3.25  22 3.26
   4  0.002  0.351  0.498-  53 1.81  48 1.82  37 1.86  36 1.87  49 2.05  32 2.13  12 2.85   6 2.87
                            16 2.93  10 2.99   2 2.99  14 3.07  23 3.16  22 3.23  20 3.29  24 3.30
   5  0.014  0.671  0.984-  42 1.88  54 1.90  35 1.91  38 1.96  39 2.01  66 2.17  11 2.87  29 2.88
                             7 2.90   3 2.94   1 2.97  15 3.03  17 3.08  23 3.13  21 3.17
   6  0.995  0.673  0.506-  41 1.81  52 1.92  40 1.97  45 1.98  36 2.07  53 2.10  29 2.82   4 2.87
                            18 2.94  16 2.95   2 2.95   8 3.03  12 3.07  21 3.26  23 3.30
   7  0.347  0.998  0.000-  51 1.78  58 1.91  54 2.03  43 2.03  39 2.05  46 2.07  13 2.81  11 2.85
                            15 2.86   5 2.90   9 3.07   1 3.11  25 3.20  21 3.24  26 3.26  19 3.26
   8  0.351  0.004  0.490-  57 1.76  56 1.80  60 1.80  45 2.04  52 2.07  44 2.11  14 2.79  16 2.82
                            12 2.96  10 2.98   6 3.03  19 3.15  25 3.16  26 3.33  21 3.37
   9  0.350  0.347  0.007-  61 1.79  47 1.79  43 1.89  50 1.91  46 2.06  31 2.09  17 2.81  15 2.88
                            11 2.90  28 2.91   7 3.07   3 3.08   1 3.11  19 3.25  22 3.27
  10  0.333  0.333  0.491-  64 1.86  59 1.87  44 1.98  49 1.98  60 2.09  48 2.11  28 2.74  18 2.86
                            12 2.88  16 2.88   2 2.97   8 2.98   4 2.99  19 3.19  22 3.22
  11  0.340  0.671  0.999-  65 1.94  35 2.07  50 2.09  51 2.09  47 2.12  54 2.13  17 2.85   7 2.85
                            13 2.85   5 2.87   9 2.90   3 3.05  22 3.11  23 3.15  26 3.16
  12  0.339  0.662  0.501-  63 1.95  64 2.00  48 2.09  57 2.10  53 2.12  52 2.15  18 2.78   4 2.85
                            14 2.86  10 2.88   8 2.96   6 3.07  22 3.09  23 3.18  26 3.19
  13  0.666  0.996  0.995-  65 1.96  34 2.06  58 2.06  51 2.10  55 2.12  62 2.15   7 2.81  17 2.85
                            11 2.85   3 2.87   1 2.87  15 2.93  26 3.09  24 3.14  20 3.24  25 3.29
  14  0.662  0.991  0.503-  63 1.93  37 2.02  33 2.10  56 2.10  32 2.10  57 2.11   2 2.79   8 2.79
                            12 2.86  18 2.87  16 3.03   4 3.07  26 3.11  20 3.19  24 3.23  25 3.30
  15  0.667  0.329  0.991-  58 1.97  38 2.06  61 2.07  55 2.09  43 2.10  66 2.12   3 2.85   7 2.86
                             9 2.88  13 2.93   5 3.03  17 3.03  24 3.08  25 3.15
  16  0.662  0.335  0.503-  59 1.96  41 2.08  56 2.09  37 2.10  60 2.10  36 2.11   8 2.82  10 2.88
                            18 2.92   4 2.93   6 2.95  14 3.03  25 3.18  24 3.20
  17  0.664  0.671  0.997-  65 1.91  62 2.04  42 2.06  61 2.07  47 2.10  66 2.11  30 2.71   9 2.81
                            27 2.82  11 2.85  13 2.85   1 2.86  15 3.03   5 3.08
  18  0.655  0.662  0.503-  63 1.96  59 1.99  64 2.02  41 2.09  33 2.12  40 2.19  30 2.69  27 2.69
                            12 2.78  10 2.86  14 2.87  16 2.92   6 2.94   2 2.95
  19  0.217  0.100  0.250-  60 2.28  31 2.33  45 2.34  43 2.37  39 2.38  49 2.47  20 2.98  25 3.00
                             8 3.15   1 3.16  10 3.19  29 3.22   9 3.25  22 3.25   7 3.26   2 3.35
  20  0.878  0.102  0.252-  33 2.26  62 2.31  55 2.32  49 2.37  37 2.38  31 2.41  25 2.83  19 2.98
                            14 3.19   3 3.20   1 3.20  22 3.20   2 3.20  13 3.24   4 3.29  27 3.41
  21  0.118  0.917  0.750-  40 2.28  44 2.32  46 2.33  54 2.34  42 2.39  52 2.44  28 3.04   2 3.10
                            26 3.17   5 3.17   1 3.20   7 3.24   6 3.26  23 3.28   8 3.37  30 3.40
  22  0.232  0.476  0.250-  64 2.25  47 2.26  53 2.31  35 2.38  31 2.52  49 2.56  12 3.09  11 3.11
                            29 3.15  20 3.20  27 3.21  10 3.22   4 3.23  19 3.25   3 3.26   9 3.27
  23  0.127  0.549  0.751-  48 2.26  38 2.34  36 2.36  54 2.37  50 2.40  52 2.46  26 2.92  24 3.03
                             5 3.13  11 3.15   4 3.16  12 3.18   3 3.25  21 3.28  28 3.29   6 3.30
  24  0.768  0.218  0.752-  58 2.30  36 2.36  38 2.37  34 2.44  56 2.46  32 2.48  26 2.84  23 3.03
                            15 3.08  13 3.14  16 3.20   3 3.22  14 3.23   4 3.30
  25  0.575  0.137  0.247-  60 2.28  55 2.32  43 2.37  51 2.40  37 2.44  57 2.48  20 2.83  19 3.00
                            15 3.15   8 3.16  16 3.18   7 3.20  13 3.29  14 3.30
  26  0.460  0.882  0.750-  63 2.26  65 2.27  56 2.34  54 2.37  58 2.37  52 2.52  24 2.84  23 2.92
                            13 3.09  14 3.11  30 3.12  11 3.16  21 3.17  12 3.19   7 3.26   8 3.33
  27  0.654  0.655  0.256-  64 2.31  47 2.32  41 2.43  66 2.43  62 2.47  33 2.48  18 2.69  17 2.82
                            29 3.13  22 3.21  20 3.41
  28  0.324  0.316  0.742-  59 2.32  44 2.33  61 2.37  48 2.40  46 2.43  50 2.51  10 2.74   9 2.91
                            21 3.04  30 3.14  23 3.29
  29  0.022  0.678  0.248-  35 2.30  39 2.30  53 2.33  45 2.40  66 2.40  41 2.44   6 2.82   5 2.88
                            27 3.13  22 3.15  19 3.22
  30  0.670  0.683  0.749-  63 2.29  65 2.33  40 2.39  42 2.41  61 2.53  59 2.59  18 2.69  17 2.71
                            26 3.12  28 3.14  21 3.40
  31  0.113  0.221  0.104-   1 2.03   3 2.05   9 2.09  19 2.33  20 2.41  22 2.52
  32  0.902  0.112  0.600-   2 1.78  14 2.10   4 2.13  24 2.48
  33  0.803  0.899  0.403-   2 1.81  14 2.10  18 2.12  20 2.26  27 2.48
  34  0.904  0.118  0.905-   3 1.93   1 1.95  13 2.06  24 2.44
  35  0.103  0.562  0.092-   5 1.91   3 2.04  11 2.07  29 2.30  22 2.38
  36  0.900  0.441  0.603-   4 1.87   6 2.07  16 2.11  24 2.36  23 2.36
  37  0.792  0.223  0.413-   4 1.86  14 2.02  16 2.10  20 2.38  25 2.44
  38  0.902  0.448  0.897-   5 1.96   3 1.98  15 2.06  23 2.34  24 2.37
  39  0.113  0.883  0.093-   5 2.01   1 2.01   7 2.05  29 2.30  19 2.38
  40  0.905  0.799  0.603-   2 1.87   6 1.97  18 2.19  21 2.28  30 2.39
  41  0.800  0.571  0.409-   6 1.81  16 2.08  18 2.09  27 2.43  29 2.44
  42  0.898  0.773  0.903-   5 1.88   1 2.03  17 2.06  21 2.39  30 2.41
  43  0.437  0.223  0.097-   9 1.89   7 2.03  15 2.10  25 2.37  19 2.37
  44  0.218  0.110  0.584-   2 1.93  10 1.98   8 2.11  21 2.32  28 2.33
  45  0.110  0.892  0.408-   6 1.98   8 2.04   2 2.11  19 2.34  29 2.40
  46  0.220  0.113  0.914-   1 1.99   9 2.06   7 2.07  21 2.33  28 2.43
  47  0.437  0.535  0.105-   9 1.79  17 2.10  11 2.12  22 2.26  27 2.32
  48  0.195  0.425  0.596-   4 1.82  12 2.09  10 2.11  23 2.26  28 2.40
  49  0.104  0.222  0.403-  10 1.98   2 2.02   4 2.05  20 2.37  19 2.47  22 2.56
  50  0.219  0.427  0.913-   9 1.91   3 2.02  11 2.09  23 2.40  28 2.51
  51  0.438  0.903  0.101-   7 1.78  11 2.09  13 2.10  25 2.40
  52  0.212  0.781  0.596-   6 1.92   8 2.07  12 2.15  21 2.44  23 2.46  26 2.52
  53  0.097  0.545  0.403-   4 1.81   6 2.10  12 2.12  22 2.31  29 2.33
  54  0.223  0.786  0.889-   5 1.90   7 2.03  11 2.13  21 2.34  23 2.37  26 2.37
  55  0.793  0.229  0.100-   3 1.82  15 2.09  13 2.12  20 2.32  25 2.32
  56  0.530  0.096  0.598-   8 1.80  16 2.09  14 2.10  26 2.34  24 2.46
  57  0.430  0.894  0.398-   8 1.76  12 2.10  14 2.11  25 2.48
  58  0.548  0.109  0.896-   7 1.91  15 1.97  13 2.06  24 2.30  26 2.37
  59  0.535  0.432  0.590-  10 1.87  16 1.96  18 1.99  28 2.32  30 2.59
  60  0.432  0.198  0.395-   8 1.80  10 2.09  16 2.10  19 2.28  25 2.28
  61  0.532  0.436  0.904-   9 1.79  17 2.07  15 2.07  28 2.37  30 2.53
  62  0.798  0.892  0.102-   1 1.82  17 2.04  13 2.15  20 2.31  27 2.47
  63  0.555  0.778  0.598-  14 1.93  12 1.95  18 1.96  26 2.26  30 2.29
  64  0.433  0.539  0.400-  10 1.86  12 2.00  18 2.02  22 2.25  27 2.31
  65  0.554  0.775  0.904-  17 1.91  11 1.94  13 1.96  26 2.27  30 2.33
  66  0.784  0.557  0.102-  17 2.11  15 2.12   5 2.17  29 2.40  27 2.43
 

IMPORTANT INFORMATION: All symmetrisations will be switched off!
NOSYMM: (Re-)initialisation of all symmetry stuff for point group C_1.

 
 
 KPOINTS: Automatic mesh                          

Automatic generation of k-mesh.
Space group operators:
 irot       det(A)        alpha          n_x          n_y          n_z        tau_x        tau_y        tau_z
    1     1.000000     0.000001     1.000000     0.000000     0.000000     0.000000     0.000000     0.000000
 
 Subroutine IBZKPT returns following result:
 ===========================================
 
 Found     64 irreducible k-points:
 
 Following reciprocal coordinates:
            Coordinates               Weight
  0.000000  0.000000  0.000000      1.000000
  0.250000  0.000000  0.000000      1.000000
  0.500000  0.000000  0.000000      1.000000
 -0.250000 -0.000000 -0.000000      1.000000
 -0.000000  0.250000 -0.000000      1.000000
  0.250000  0.250000  0.000000      1.000000
  0.500000  0.250000  0.000000      1.000000
 -0.250000  0.250000 -0.000000      1.000000
 -0.000000  0.500000 -0.000000      1.000000
  0.250000  0.500000  0.000000      1.000000
  0.500000  0.500000  0.000000      1.000000
 -0.250000  0.500000  0.000000      1.000000
  0.000000 -0.250000  0.000000      1.000000
  0.250000 -0.250000  0.000000      1.000000
  0.500000 -0.250000  0.000000      1.000000
 -0.250000 -0.250000 -0.000000      1.000000
  0.000000  0.000000  0.250000      1.000000
  0.250000  0.000000  0.250000      1.000000
  0.500000  0.000000  0.250000      1.000000
 -0.250000  0.000000  0.250000      1.000000
 -0.000000  0.250000  0.250000      1.000000
  0.250000  0.250000  0.250000      1.000000
  0.500000  0.250000  0.250000      1.000000
 -0.250000  0.250000  0.250000      1.000000
 -0.000000  0.500000  0.250000      1.000000
  0.250000  0.500000  0.250000      1.000000
  0.500000  0.500000  0.250000      1.000000
 -0.250000  0.500000  0.250000      1.000000
  0.000000 -0.250000  0.250000      1.000000
  0.250000 -0.250000  0.250000      1.000000
  0.500000 -0.250000  0.250000      1.000000
 -0.250000 -0.250000  0.250000      1.000000
  0.000000  0.000000  0.500000      1.000000
  0.250000  0.000000  0.500000      1.000000
  0.500000  0.000000  0.500000      1.000000
 -0.250000 -0.000000  0.500000      1.000000
 -0.000000  0.250000  0.500000      1.000000
  0.250000  0.250000  0.500000      1.000000
  0.500000  0.250000  0.500000      1.000000
 -0.250000  0.250000  0.500000      1.000000
 -0.000000  0.500000  0.500000      1.000000
  0.250000  0.500000  0.500000      1.000000
  0.500000  0.500000  0.500000      1.000000
 -0.250000  0.500000  0.500000      1.000000
 -0.000000 -0.250000  0.500000      1.000000
  0.250000 -0.250000  0.500000      1.000000
  0.500000 -0.250000  0.500000      1.000000
 -0.250000 -0.250000  0.500000      1.000000
  0.000000  0.000000 -0.250000      1.000000
  0.250000 -0.000000 -0.250000      1.000000
  0.500000  0.000000 -0.250000      1.000000
 -0.250000 -0.000000 -0.250000      1.000000
  0.000000  0.250000 -0.250000      1.000000
  0.250000  0.250000 -0.250000      1.000000
  0.500000  0.250000 -0.250000      1.000000
 -0.250000  0.250000 -0.250000      1.000000
  0.000000  0.500000 -0.250000      1.000000
  0.250000  0.500000 -0.250000      1.000000
  0.500000  0.500000 -0.250000      1.000000
 -0.250000  0.500000 -0.250000      1.000000
  0.000000 -0.250000 -0.250000      1.000000
  0.250000 -0.250000 -0.250000      1.000000
  0.500000 -0.250000 -0.250000      1.000000
 -0.250000 -0.250000 -0.250000      1.000000
 
 Following cartesian coordinates:
            Coordinates               Weight
  0.000000  0.000000  0.000000      1.000000
  0.028498  0.016477  0.000087      1.000000
  0.056995  0.032954  0.000174      1.000000
 -0.028498 -0.016477 -0.000087      1.000000
  0.000077  0.032823 -0.000061      1.000000
  0.028575  0.049301  0.000026      1.000000
  0.057072  0.065778  0.000112      1.000000
 -0.028420  0.016346 -0.000148      1.000000
  0.000155  0.065647 -0.000123      1.000000
  0.028652  0.082124 -0.000036      1.000000
  0.057150  0.098601  0.000051      1.000000
 -0.028343  0.049170 -0.000210      1.000000
 -0.000077 -0.032823  0.000061      1.000000
  0.028420 -0.016346  0.000148      1.000000
  0.056918  0.000131  0.000235      1.000000
 -0.028575 -0.049301 -0.000026      1.000000
  0.000095 -0.000041  0.022905      1.000000
  0.028592  0.016436  0.022992      1.000000
  0.057090  0.032913  0.023079      1.000000
 -0.028403 -0.016519  0.022818      1.000000
  0.000172  0.032782  0.022844      1.000000
  0.028669  0.049259  0.022930      1.000000
  0.057167  0.065736  0.023017      1.000000
 -0.028326  0.016305  0.022757      1.000000
  0.000249  0.065605  0.022782      1.000000
  0.028747  0.082083  0.022869      1.000000
  0.057244  0.098560  0.022956      1.000000
 -0.028248  0.049128  0.022695      1.000000
  0.000017 -0.032865  0.022966      1.000000
  0.028515 -0.016388  0.023053      1.000000
  0.057012  0.000090  0.023140      1.000000
 -0.028480 -0.049342  0.022879      1.000000
  0.000189 -0.000083  0.045810      1.000000
  0.028687  0.016394  0.045897      1.000000
  0.057184  0.032872  0.045984      1.000000
 -0.028308 -0.016560  0.045723      1.000000
  0.000267  0.032741  0.045748      1.000000
  0.028764  0.049218  0.045835      1.000000
  0.057262  0.065695  0.045922      1.000000
 -0.028231  0.016263  0.045662      1.000000
  0.000344  0.065564  0.045687      1.000000
  0.028841  0.082041  0.045774      1.000000
  0.057339  0.098518  0.045861      1.000000
 -0.028154  0.049087  0.045600      1.000000
  0.000112 -0.032906  0.045871      1.000000
  0.028610 -0.016429  0.045958      1.000000
  0.057107  0.000048  0.046045      1.000000
 -0.028386 -0.049383  0.045784      1.000000
 -0.000095  0.000041 -0.022905      1.000000
  0.028403  0.016519 -0.022818      1.000000
  0.056900  0.032996 -0.022731      1.000000
 -0.028592 -0.016436 -0.022992      1.000000
 -0.000017  0.032865 -0.022966      1.000000
  0.028480  0.049342 -0.022879      1.000000
  0.056978  0.065819 -0.022792      1.000000
 -0.028515  0.016388 -0.023053      1.000000
  0.000060  0.065688 -0.023027      1.000000
  0.028557  0.082165 -0.022941      1.000000
  0.057055  0.098643 -0.022854      1.000000
 -0.028438  0.049211 -0.023114      1.000000
 -0.000172 -0.032782 -0.022844      1.000000
  0.028326 -0.016305 -0.022757      1.000000
  0.056823  0.000172 -0.022670      1.000000
 -0.028669 -0.049259 -0.022930      1.000000
 


--------------------------------------------------------------------------------------------------------




 Dimension of arrays:
   k-points           NKPTS =     64   k-points in BZ     NKDIM =     64   number of bands    NBANDS=    320
   number of dos      NEDOS =   2000   number of ions     NIONS =     66
   non local maximal  LDIM  =      6   non local SUM 2l+1 LMDIM =     18
   total plane-waves  NPLWV = 124416
   max r-space proj   IRMAX =      1   max aug-charges    IRDMAX=  10530
   dimension x,y,z NGX =    48 NGY =   48 NGZ =   54
   dimension x,y,z NGXF=    96 NGYF=   96 NGZF=  108
   support grid    NGXF=    96 NGYF=   96 NGZF=  108
   ions per type =               9   9  12  35   1
   NGX,Y,Z   is equivalent  to a cutoff of   9.08,  9.06,  8.22 a.u.
   NGXF,Y,Z  is equivalent  to a cutoff of  18.17, 18.11, 16.45 a.u.

 SYSTEM =  "Na0.67V0.5Ni0.5O2"                     
 POSCAR =  Na0.67V0.5Ni0.5O1.925F0.15 (3*3*1 super 

 Startparameter for this run:
   NWRITE =      2    write-flag & timer
   PREC   = n         normal or accurate (medium, high low for compatibility)
   ISTART =      0    job   : 0-new  1-cont  2-samecut
   ICHARG =      2    charge: 1-file 2-atom 10-const
   ISPIN  =      2    spin polarized calculation?
   LNONCOLLINEAR =      F non collinear calculations
   LSORBIT =      F    spin-orbit coupling
   INIWAV =      1    electr: 0-lowe 1-rand  2-diag
   LASPH  =      F    aspherical Exc in radial PAW
   METAGGA=      F    non-selfconsistent MetaGGA calc.

 Electronic Relaxation 1
   ENCUT  =  400.0 eV  29.40 Ry    5.42 a.u.  14.33 14.37 17.80*2*pi/ulx,y,z
   ENINI  =  400.0     initial cutoff
   ENAUG  =  613.6 eV  augmentation charge cutoff
   NELM   =    200;   NELMIN=  6; NELMDL= -5     # of ELM steps 
   EDIFF  = 0.1E-03   stopping-criterion for ELM
   LREAL  =      F    real-space projection
   NLSPLINE    = F    spline interpolate recip. space projectors
   LCOMPAT=      F    compatible to vasp.4.4
   GGA_COMPAT  = T    GGA compatible to vasp.4.4-vasp.4.6
   LMAXPAW     = -100 max onsite density
   LMAXMIX     =    4 max onsite mixed and CHGCAR
   VOSKOWN=      0    Vosko Wilk Nusair interpolation
   ROPT   =    0.00000   0.00000   0.00000   0.00000
   ROPT   =    0.00000
 Ionic relaxation
   EDIFFG = -.5E-01   stopping-criterion for IOM
   NSW    =      0    number of steps for IOM
   NBLOCK =      1;   KBLOCK =      1    inner block; outer block 
   IBRION =     -1    ionic relax: 0-MD 1-quasi-New 2-CG
   NFREE  =      0    steps in history (QN), initial steepest desc. (CG)
   ISIF   =      2    stress and relaxation
   IWAVPR =     10    prediction:  0-non 1-charg 2-wave 3-comb
   ISYM   =     -1    0-nonsym 1-usesym 2-fastsym
   LCORR  =      T    Harris-Foulkes like correction to forces

   POTIM  = 0.5000    time-step for ionic-motion
   TEIN   =    0.0    initial temperature
   TEBEG  =    0.0;   TEEND  =   0.0 temperature during run
   SMASS  =  -3.00    Nose mass-parameter (am)
   estimated Nose-frequenzy (Omega)   =  0.10E-29 period in steps =****** mass=  -0.176E-26a.u.
   SCALEE = 1.0000    scale energy and forces
   NPACO  =    256;   APACO  = 16.0  distance and # of slots for P.C.
   PSTRESS=    0.0 pullay stress

  Mass of Ions in am
   POMASS =  50.94 58.69 22.99 16.00 19.00
  Ionic Valenz
   ZVAL   =   5.00 10.00  1.00  6.00  7.00
  Atomic Wigner-Seitz radii
   RWIGS  =  -1.00 -1.00 -1.00 -1.00 -1.00
  virtual crystal weights 
   VCA    =   1.00  1.00  1.00  1.00  1.00
   NELECT =     364.0000    total number of electrons
   NUPDOWN=      -1.0000    fix difference up-down

 DOS related values:
   EMIN   =  10.00;   EMAX   =-10.00  energy-range for DOS
   EFERMI =   0.00
   ISMEAR =     0;   SIGMA  =   0.10  broadening in eV -4-tet -1-fermi 0-gaus

 Electronic relaxation 2 (details)
   IALGO  =     58    algorithm
   LDIAG  =      T    sub-space diagonalisation (order eigenvalues)
   LSUBROT=      F    optimize rotation matrix (better conditioning)
   TURBO    =      0    0=normal 1=particle mesh
   IRESTART =      0    0=no restart 2=restart with 2 vectors
   NREBOOT  =      0    no. of reboots
   NMIN     =      0    reboot dimension
   EREF     =   0.00    reference energy to select bands
   IMIX   =      4    mixing-type and parameters
     AMIX     =   0.02;   BMIX     =  0.00
     AMIX_MAG =   0.80;   BMIX_MAG =  0.00
     AMIN     =   0.02
     WC   =   100.;   INIMIX=   1;  MIXPRE=   1;  MAXMIX= -45

 Intra band minimization:
   WEIMIN = 0.0000     energy-eigenvalue tresh-hold
   EBREAK =  0.78E-07  absolut break condition
   DEPER  =   0.30     relativ break condition  

   TIME   =   0.04     timestep for ELM

  volume/ion in A,a.u.               =      11.07        74.67
  Fermi-wavevector in a.u.,A,eV,Ry     =   1.298000  2.452865 22.923155  1.684804
  Thomas-Fermi vector in A             =   2.429357
 
 Write flags
   LWAVE        =      T    write WAVECAR
   LDOWNSAMPLE  =      F    k-point downsampling of WAVECAR
   LCHARG       =      T    write CHGCAR
   LVTOT        =      F    write LOCPOT, total local potential
   LVHAR        =      F    write LOCPOT, Hartree potential only
   LELF         =      F    write electronic localiz. function (ELF)
   LORBIT       =     11    0 simple, 1 ext, 2 COOP (PROOUT), +10 PAW based schemes


 Dipole corrections
   LMONO  =      F    monopole corrections only (constant potential shift)
   LDIPOL =      F    correct potential (dipole corrections)
   IDIPOL =      0    1-x, 2-y, 3-z, 4-all directions 
   EPSILON=  1.0000000 bulk dielectric constant

 LDA+U is selected, type is set to LDAUTYPE =  2
   angular momentum for each species LDAUL =     2    2   -1   -1   -1
   U (eV)           for each species LDAUU =   3.2  6.4  0.0  0.0  0.0
   J (eV)           for each species LDAUJ =   0.0  0.0  0.0  0.0  0.0
 Exchange correlation treatment:
   GGA     =    --    GGA type
   LEXCH   =     8    internal setting for exchange type
   VOSKOWN=      0    Vosko Wilk Nusair interpolation
   LHFCALC =     F    Hartree Fock is set to
   LHFONE  =     F    Hartree Fock one center treatment
   AEXX    =    0.0000 exact exchange contribution

 Linear response parameters
   LEPSILON=     F    determine dielectric tensor
   LRPA    =     F    only Hartree local field effects (RPA)
   LNABLA  =     F    use nabla operator in PAW spheres
   LVEL    =     F    velocity operator in full k-point grid
   LINTERFAST=   F  fast interpolation
   KINTER  =     0    interpolate to denser k-point grid
   CSHIFT  =0.1000    complex shift for real part using Kramers Kronig
   OMEGAMAX=  -1.0    maximum frequency
   DEG_THRESHOLD= 0.2000000E-02 threshold for treating states as degnerate
   RTIME   =   -0.100 relaxation time in fs
  (WPLASMAI=    0.000 imaginary part of plasma frequency in eV, 0.658/RTIME)
   DFIELD  = 0.0000000 0.0000000 0.0000000 field for delta impulse in time
 
 Orbital magnetization related:
   ORBITALMAG=     F  switch on orbital magnetization
   LCHIMAG   =     F  perturbation theory with respect to B field
   DQ        =  0.001000  dq finite difference perturbation B field
   LLRAUG    =     F  two centre corrections for induced B field



--------------------------------------------------------------------------------------------------------


 Static calculation
 charge density and potential will be updated during run
 spin polarized calculation
 Conjugate gradient for all bands (Freysoldt, et al. PRB 79, 241103 (2009))
 preconditioned conjugated gradient                                        
 perform sub-space diagonalisation
    before iterative eigenvector-optimisation
 modified Broyden-mixing scheme, WC =      100.0
 initial mixing is a Kerker type mixing with AMIX =  0.0200 and BMIX =      0.0000
 Hartree-type preconditioning will be used
 using additional bands          138
 reciprocal scheme for non local part
 use partial core corrections
 no Harris-corrections to forces 
 use gradient corrections 
 use of overlap-Matrix (Vanderbilt PP)
 Gauss-broadening in eV      SIGMA  =   0.10


--------------------------------------------------------------------------------------------------------


  energy-cutoff  :      400.00
  volume of cell :      730.30
      direct lattice vectors                 reciprocal lattice vectors
     8.784787923 -0.020749086 -0.036330464     0.113990251  0.065908825  0.000347590
    -4.409983943  7.626961201  0.032009152     0.000309093  0.131293567 -0.000245233
    -0.045132124  0.020493375 10.914937319     0.000378511 -0.000165654  0.091619443

  length of vectors
     8.784887551  8.810194103 10.915049865     0.131673350  0.131294160  0.091620375


 
 k-points in units of 2pi/SCALE and weight: Automatic mesh                          
   0.00000000  0.00000000  0.00000000       0.016
   0.02849756  0.01647721  0.00008690       0.016
   0.05699513  0.03295441  0.00017380       0.016
  -0.02849756 -0.01647721 -0.00008690       0.016
   0.00007727  0.03282339 -0.00006131       0.016
   0.02857484  0.04930060  0.00002559       0.016
   0.05707240  0.06577780  0.00011249       0.016
  -0.02842029  0.01634619 -0.00014821       0.016
   0.00015455  0.06564678 -0.00012262       0.016
   0.02865211  0.08212399 -0.00003572       0.016
   0.05714967  0.09860120  0.00005118       0.016
  -0.02834302  0.04916958 -0.00020951       0.016
  -0.00007727 -0.03282339  0.00006131       0.016
   0.02842029 -0.01634619  0.00014821       0.016
   0.05691785  0.00013102  0.00023510       0.016
  -0.02857484 -0.04930060 -0.00002559       0.016
   0.00009463 -0.00004141  0.02290486       0.016
   0.02859219  0.01643579  0.02299176       0.016
   0.05708975  0.03291300  0.02307866       0.016
  -0.02840293 -0.01651862  0.02281796       0.016
   0.00017190  0.03278198  0.02284355       0.016
   0.02866946  0.04925918  0.02293045       0.016
   0.05716703  0.06573639  0.02301735       0.016
  -0.02832566  0.01630477  0.02275666       0.016
   0.00024917  0.06560537  0.02278224       0.016
   0.02874674  0.08208258  0.02286914       0.016
   0.05724430  0.09855978  0.02295604       0.016
  -0.02824839  0.04912816  0.02269535       0.016
   0.00001735 -0.03286481  0.02296617       0.016
   0.02851492 -0.01638760  0.02305307       0.016
   0.05701248  0.00008961  0.02313996       0.016
  -0.02848021 -0.04934201  0.02287927       0.016
   0.00018926 -0.00008283  0.04580972       0.016
   0.02868682  0.01639438  0.04589662       0.016
   0.05718438  0.03287159  0.04598352       0.016
  -0.02830831 -0.01656003  0.04572282       0.016
   0.00026653  0.03274057  0.04574841       0.016
   0.02876409  0.04921777  0.04583531       0.016
   0.05726165  0.06569498  0.04592221       0.016
  -0.02823103  0.01626336  0.04566152       0.016
   0.00034380  0.06556396  0.04568711       0.016
   0.02884136  0.08204116  0.04577400       0.016
   0.05733893  0.09851837  0.04586090       0.016
  -0.02815376  0.04908675  0.04560021       0.016
   0.00011198 -0.03290622  0.04587103       0.016
   0.02860955 -0.01642901  0.04595793       0.016
   0.05710711  0.00004819  0.04604482       0.016
  -0.02838558 -0.04938342  0.04578413       0.016
  -0.00009463  0.00004141 -0.02290486       0.016
   0.02840293  0.01651862 -0.02281796       0.016
   0.05690050  0.03299583 -0.02273107       0.016
  -0.02859219 -0.01643579 -0.02299176       0.016
  -0.00001735  0.03286481 -0.02296617       0.016
   0.02848021  0.04934201 -0.02287927       0.016
   0.05697777  0.06581922 -0.02279237       0.016
  -0.02851492  0.01638760 -0.02305307       0.016
   0.00005992  0.06568820 -0.02302748       0.016
   0.02855748  0.08216540 -0.02294058       0.016
   0.05705504  0.09864261 -0.02285368       0.016
  -0.02843764  0.04921099 -0.02311437       0.016
  -0.00017190 -0.03278198 -0.02284355       0.016
   0.02832566 -0.01630477 -0.02275666       0.016
   0.05682322  0.00017243 -0.02266976       0.016
  -0.02866946 -0.04925918 -0.02293045       0.016
 
 k-points in reciprocal lattice and weights: Automatic mesh                          
   0.00000000  0.00000000  0.00000000       0.016
   0.25000000  0.00000000  0.00000000       0.016
   0.50000000  0.00000000  0.00000000       0.016
  -0.25000000 -0.00000000 -0.00000000       0.016
  -0.00000000  0.25000000 -0.00000000       0.016
   0.25000000  0.25000000  0.00000000       0.016
   0.50000000  0.25000000  0.00000000       0.016
  -0.25000000  0.25000000 -0.00000000       0.016
  -0.00000000  0.50000000 -0.00000000       0.016
   0.25000000  0.50000000  0.00000000       0.016
   0.50000000  0.50000000  0.00000000       0.016
  -0.25000000  0.50000000  0.00000000       0.016
   0.00000000 -0.25000000  0.00000000       0.016
   0.25000000 -0.25000000  0.00000000       0.016
   0.50000000 -0.25000000  0.00000000       0.016
  -0.25000000 -0.25000000 -0.00000000       0.016
   0.00000000  0.00000000  0.25000000       0.016
   0.25000000  0.00000000  0.25000000       0.016
   0.50000000  0.00000000  0.25000000       0.016
  -0.25000000  0.00000000  0.25000000       0.016
  -0.00000000  0.25000000  0.25000000       0.016
   0.25000000  0.25000000  0.25000000       0.016
   0.50000000  0.25000000  0.25000000       0.016
  -0.25000000  0.25000000  0.25000000       0.016
  -0.00000000  0.50000000  0.25000000       0.016
   0.25000000  0.50000000  0.25000000       0.016
   0.50000000  0.50000000  0.25000000       0.016
  -0.25000000  0.50000000  0.25000000       0.016
   0.00000000 -0.25000000  0.25000000       0.016
   0.25000000 -0.25000000  0.25000000       0.016
   0.50000000 -0.25000000  0.25000000       0.016
  -0.25000000 -0.25000000  0.25000000       0.016
   0.00000000  0.00000000  0.50000000       0.016
   0.25000000  0.00000000  0.50000000       0.016
   0.50000000  0.00000000  0.50000000       0.016
  -0.25000000 -0.00000000  0.50000000       0.016
  -0.00000000  0.25000000  0.50000000       0.016
   0.25000000  0.25000000  0.50000000       0.016
   0.50000000  0.25000000  0.50000000       0.016
  -0.25000000  0.25000000  0.50000000       0.016
  -0.00000000  0.50000000  0.50000000       0.016
   0.25000000  0.50000000  0.50000000       0.016
   0.50000000  0.50000000  0.50000000       0.016
  -0.25000000  0.50000000  0.50000000       0.016
  -0.00000000 -0.25000000  0.50000000       0.016
   0.25000000 -0.25000000  0.50000000       0.016
   0.50000000 -0.25000000  0.50000000       0.016
  -0.25000000 -0.25000000  0.50000000       0.016
   0.00000000  0.00000000 -0.25000000       0.016
   0.25000000 -0.00000000 -0.25000000       0.016
   0.50000000  0.00000000 -0.25000000       0.016
  -0.25000000 -0.00000000 -0.25000000       0.016
   0.00000000  0.25000000 -0.25000000       0.016
   0.25000000  0.25000000 -0.25000000       0.016
   0.50000000  0.25000000 -0.25000000       0.016
  -0.25000000  0.25000000 -0.25000000       0.016
   0.00000000  0.50000000 -0.25000000       0.016
   0.25000000  0.50000000 -0.25000000       0.016
   0.50000000  0.50000000 -0.25000000       0.016
  -0.25000000  0.50000000 -0.25000000       0.016
   0.00000000 -0.25000000 -0.25000000       0.016
   0.25000000 -0.25000000 -0.25000000       0.016
   0.50000000 -0.25000000 -0.25000000       0.016
  -0.25000000 -0.25000000 -0.25000000       0.016
 
 position of ions in fractional coordinates (direct lattice) 
   0.99265770  0.99549256  0.00469962
   0.98623973  0.00373233  0.50945390
   0.98936843  0.32626469  0.00442449
   0.00234599  0.35084280  0.49838608
   0.01375056  0.67099534  0.98432342
   0.99489322  0.67317942  0.50565941
   0.34719267  0.99778648  0.00039355
   0.35118941  0.00395755  0.48974046
   0.34951081  0.34693983  0.00677783
   0.33272774  0.33311525  0.49131825
   0.34011163  0.67104018  0.99937187
   0.33901809  0.66243110  0.50087146
   0.66574794  0.99587919  0.99464292
   0.66235463  0.99123618  0.50269707
   0.66665351  0.32856925  0.99087582
   0.66152363  0.33457523  0.50264471
   0.66416930  0.67137732  0.99740415
   0.65497753  0.66214780  0.50257596
   0.21672413  0.09992422  0.24951251
   0.87823461  0.10177673  0.25231519
   0.11832622  0.91732041  0.74989708
   0.23229010  0.47610297  0.24985464
   0.12693304  0.54894797  0.75136603
   0.76829169  0.21783399  0.75205771
   0.57536134  0.13693821  0.24726628
   0.45957830  0.88152309  0.74977181
   0.65374177  0.65471724  0.25577907
   0.32363878  0.31563191  0.74163746
   0.02154162  0.67828648  0.24833531
   0.67045639  0.68294271  0.74886375
   0.11265860  0.22107522  0.10377661
   0.90168375  0.11239654  0.59973940
   0.80265394  0.89922230  0.40333319
   0.90373761  0.11847258  0.90471626
   0.10291503  0.56200529  0.09155445
   0.89999759  0.44093491  0.60259333
   0.79205969  0.22315765  0.41278048
   0.90176839  0.44751753  0.89672812
   0.11311002  0.88306446  0.09286969
   0.90466722  0.79882697  0.60284500
   0.80002076  0.57121976  0.40893735
   0.89810618  0.77333484  0.90309365
   0.43721861  0.22275308  0.09682145
   0.21750720  0.10973256  0.58408339
   0.10953750  0.89225035  0.40789558
   0.21952093  0.11251105  0.91365211
   0.43738762  0.53517021  0.10484250
   0.19535810  0.42502322  0.59610952
   0.10351153  0.22174549  0.40330301
   0.21870290  0.42703701  0.91317065
   0.43782675  0.90260554  0.10088877
   0.21187959  0.78136484  0.59611817
   0.09722225  0.54496504  0.40295591
   0.22291193  0.78647812  0.88908821
   0.79349205  0.22901485  0.09963857
   0.53029972  0.09627214  0.59827797
   0.42974391  0.89424840  0.39800979
   0.54772661  0.10948779  0.89564642
   0.53503684  0.43210404  0.58950324
   0.43214967  0.19775703  0.39525798
   0.53204499  0.43619984  0.90353757
   0.79844880  0.89175649  0.10199293
   0.55450306  0.77756932  0.59789513
   0.43267832  0.53935193  0.39984162
   0.55425158  0.77481074  0.90388375
   0.78447037  0.55735467  0.10170045
 
 position of ions in cartesian coordinates  (Angst):
   4.32996906  7.57208270  0.04709717
   8.62445463  0.01844316  5.52494630
   7.25237007  2.46797032  0.02279222
  -1.54909535  2.68602938  5.45099772
  -2.88270752  5.13754223 10.76480690
   5.74839405  5.12403285  5.50464371
  -1.35022611  7.60288289  0.02362025
   3.04556875  0.03293363  5.33285420
   1.54007342  2.63898346  0.07238700
   1.43173546  2.54382204  5.36128254
  -0.01657168  5.13142088 10.91720435
   0.03428615  5.05556652  5.47586774
   1.41175283  7.60210189 10.86415544
   1.42462150  7.55667862  5.49457204
   4.36270430  2.51245883 10.80164482
   4.31318798  2.54836719  5.47301147
   2.82880824  5.12722806 10.88396446
   2.81109524  5.04688487  5.48298427
   1.45195030  0.76273468  2.71873816
   7.25488356  0.76319541  2.72535557
  -3.03974194  7.00927992  8.21014347
  -0.07026369  3.63151947  2.73394822
  -1.33968264  4.19956914  8.21407293
   5.75469322  1.66088222  8.18772303
   4.43937244  1.03755148  2.68237609
   0.11595649  6.72917191  8.19523242
   2.84414645  4.98518025  2.78901876
   1.41769470  2.41579574  8.09327153
  -2.81320186  5.17790693  2.73149306
   2.84425299  5.21021291  8.17130330
   0.01006011  1.68592130  1.13569866
   7.39836611  0.85082558  6.51695709
   3.06738539  6.84994495  4.40197900
   7.37584931  0.90337475  9.84588029
  -1.57847962  4.28613343  1.01356144
   5.93457576  3.35666846  6.55868501
   5.95532510  1.69403950  4.48384023
   5.90782774  3.41286492  9.76929421
  -2.90484397  6.73465465  1.03782361
   4.39728786  6.08620562  6.57271821
   4.49048655  4.34845177  4.45274467
   4.43851953  5.89806739  9.84933578
   2.85416546  1.69184143  1.04804583
   1.40047489  0.84438276  6.37084393
  -2.99095521  6.81124516  4.47673528
   1.39103787  0.87228635  9.96808157
   1.47753365  4.07479565  1.14558917
  -0.18506976  3.24979837  6.51300525
  -0.08676913  1.69736151  4.40536436
  -0.00318111  3.27117074  9.97292391
  -0.13881410  6.87712051  1.11417975
  -1.61139325  5.96725950  6.52390564
  -1.56739648  4.16266790  4.41215023
  -1.55024828  6.01203331  9.72141814
   5.95621071  1.73226507  1.06605134
   4.20701040  0.73552136  6.51398213
  -0.18637497  6.81963765  4.35726329
   4.28840029  0.84204910  9.75953000
   2.76800772  3.29662014  6.42878404
   2.90639902  1.50741866  4.30484588
   2.70948956  3.33435631  9.85668887
   3.07696844  6.78691522  1.11278279
   1.41513925  5.93123852  6.53073182
   1.40440824  4.11283268  4.36579096
   1.41128547  5.91647490  9.87049928
   4.42889079  4.23672955  1.09939427
 


--------------------------------------------------------------------------------------------------------


 k-point  1 :   0.0000 0.0000 0.0000  plane waves:   13273
 k-point  2 :   0.2500 0.0000 0.0000  plane waves:   13266
 k-point  3 :   0.5000 0.0000 0.0000  plane waves:   13270
 k-point  4 :  -0.2500-0.0000-0.0000  plane waves:   13266
 k-point  5 :  -0.0000 0.2500-0.0000  plane waves:   13270
 k-point  6 :   0.2500 0.2500 0.0000  plane waves:   13264
 k-point  7 :   0.5000 0.2500 0.0000  plane waves:   13256
 k-point  8 :  -0.2500 0.2500-0.0000  plane waves:   13276
 k-point  9 :  -0.0000 0.5000-0.0000  plane waves:   13274
 k-point 10 :   0.2500 0.5000 0.0000  plane waves:   13249
 k-point 11 :   0.5000 0.5000 0.0000  plane waves:   13260
 k-point 12 :  -0.2500 0.5000 0.0000  plane waves:   13249
 k-point 13 :   0.0000-0.2500 0.0000  plane waves:   13270
 k-point 14 :   0.2500-0.2500 0.0000  plane waves:   13276
 k-point 15 :   0.5000-0.2500 0.0000  plane waves:   13256
 k-point 16 :  -0.2500-0.2500-0.0000  plane waves:   13264
 k-point 17 :   0.0000 0.0000 0.2500  plane waves:   13279
 k-point 18 :   0.2500 0.0000 0.2500  plane waves:   13267
 k-point 19 :   0.5000 0.0000 0.2500  plane waves:   13270
 k-point 20 :  -0.2500 0.0000 0.2500  plane waves:   13267
 k-point 21 :  -0.0000 0.2500 0.2500  plane waves:   13275
 k-point 22 :   0.2500 0.2500 0.2500  plane waves:   13257
 k-point 23 :   0.5000 0.2500 0.2500  plane waves:   13264
 k-point 24 :  -0.2500 0.2500 0.2500  plane waves:   13263
 k-point 25 :  -0.0000 0.5000 0.2500  plane waves:   13265
 k-point 26 :   0.2500 0.5000 0.2500  plane waves:   13260
 k-point 27 :   0.5000 0.5000 0.2500  plane waves:   13259
 k-point 28 :  -0.2500 0.5000 0.2500  plane waves:   13258
 k-point 29 :   0.0000-0.2500 0.2500  plane waves:   13266
 k-point 30 :   0.2500-0.2500 0.2500  plane waves:   13267
 k-point 31 :   0.5000-0.2500 0.2500  plane waves:   13247
 k-point 32 :  -0.2500-0.2500 0.2500  plane waves:   13258
 k-point 33 :   0.0000 0.0000 0.5000  plane waves:   13300
 k-point 34 :   0.2500 0.0000 0.5000  plane waves:   13285
 k-point 35 :   0.5000 0.0000 0.5000  plane waves:   13268
 k-point 36 :  -0.2500-0.0000 0.5000  plane waves:   13285
 k-point 37 :  -0.0000 0.2500 0.5000  plane waves:   13289
 k-point 38 :   0.2500 0.2500 0.5000  plane waves:   13265
 k-point 39 :   0.5000 0.2500 0.5000  plane waves:   13256
 k-point 40 :  -0.2500 0.2500 0.5000  plane waves:   13288
 k-point 41 :  -0.0000 0.5000 0.5000  plane waves:   13274
 k-point 42 :   0.2500 0.5000 0.5000  plane waves:   13253
 k-point 43 :   0.5000 0.5000 0.5000  plane waves:   13266
 k-point 44 :  -0.2500 0.5000 0.5000  plane waves:   13253
 k-point 45 :  -0.0000-0.2500 0.5000  plane waves:   13289
 k-point 46 :   0.2500-0.2500 0.5000  plane waves:   13288
 k-point 47 :   0.5000-0.2500 0.5000  plane waves:   13256
 k-point 48 :  -0.2500-0.2500 0.5000  plane waves:   13265
 k-point 49 :   0.0000 0.0000-0.2500  plane waves:   13279
 k-point 50 :   0.2500-0.0000-0.2500  plane waves:   13267
 k-point 51 :   0.5000 0.0000-0.2500  plane waves:   13270
 k-point 52 :  -0.2500-0.0000-0.2500  plane waves:   13267
 k-point 53 :   0.0000 0.2500-0.2500  plane waves:   13266
 k-point 54 :   0.2500 0.2500-0.2500  plane waves:   13258
 k-point 55 :   0.5000 0.2500-0.2500  plane waves:   13247
 k-point 56 :  -0.2500 0.2500-0.2500  plane waves:   13267
 k-point 57 :   0.0000 0.5000-0.2500  plane waves:   13265
 k-point 58 :   0.2500 0.5000-0.2500  plane waves:   13258
 k-point 59 :   0.5000 0.5000-0.2500  plane waves:   13259
 k-point 60 :  -0.2500 0.5000-0.2500  plane waves:   13260
 k-point 61 :   0.0000-0.2500-0.2500  plane waves:   13275
 k-point 62 :   0.2500-0.2500-0.2500  plane waves:   13263
 k-point 63 :   0.5000-0.2500-0.2500  plane waves:   13264
 k-point 64 :  -0.2500-0.2500-0.2500  plane waves:   13257

 maximum and minimum number of plane-waves per node :     13300    13247

 maximum number of plane-waves:     13300
 maximum index in each direction: 
   IXMAX=   14   IYMAX=   14   IZMAX=   18
   IXMIN=  -14   IYMIN=  -14   IZMIN=  -18


 serial   3D FFT for wavefunctions
 parallel 3D FFT for charge:
    minimum data exchange during FFTs selected (reduces bandwidth)


 total amount of memory used by VASP MPI-rank0  1021204. kBytes
=======================================================================

   base      :      30000. kBytes
   nonl-proj :     629736. kBytes
   fftplans  :       1170. kBytes
   grid      :      12217. kBytes
   one-center:       2052. kBytes
   wavefun   :     346029. kBytes
 
     INWAV:  cpu time    0.0001: real time    0.0004
 Broyden mixing: mesh for mixing (old mesh)
   NGX = 29   NGY = 29   NGZ = 35
  (NGX  = 96   NGY  = 96   NGZ  =108)
  gives a total of  29435 points

 initial charge density was supplied:
 charge density of overlapping atoms calculated
 number of electron     364.0000000 magnetization      72.0000000
 keeping initial charge density in first step


--------------------------------------------------------------------------------------------------------


 Maximum index for augmentation-charges          524 (set IRDMAX)


--------------------------------------------------------------------------------------------------------


 First call to EWALD:  gamma=   0.197
 Maximum number of real-space cells 3x 3x 2
 Maximum number of reciprocal cells 3x 3x 3

    FEWALD:  cpu time    0.0027: real time    0.0027


--------------------------------------- Iteration      1(   1)  ---------------------------------------


    POTLOK:  cpu time    0.0518: real time    0.0945
atom =   1  type =  1  l = 2
 
 onsite density matrix
 
spin component  1
 
  0.6193  0.0000  0.0000  0.0000  0.0000
  0.0000  0.6193  0.0000  0.0000  0.0000
  0.0000  0.0000  0.6193  0.0000  0.0000
  0.0000  0.0000  0.0000  0.6193  0.0000
  0.0000  0.0000  0.0000  0.0000  0.6193
 
spin component  2
 
  0.0688  0.0000  0.0000  0.0000  0.0000
  0.0000  0.0688  0.0000  0.0000  0.0000
  0.0000  0.0000  0.0688  0.0000  0.0000
  0.0000  0.0000  0.0000  0.0688  0.0000
  0.0000  0.0000  0.0000  0.0000  0.0688
 
 occupancies and eigenvectors
 
  o =  0.0688  v =  0.0000  0.0000  0.0000  0.0000  0.0000  1.0000  0.0000  0.0000  0.0000  0.0000      0.0000  0.0000  0.0000  0.0000  0.0000  0.0000  0.0000  0.0000  0.0000  0.0000
  o =  0.0688  v =  0.0000  0.0000  0.0000  0.0000  0.0000  0.0000  1.0000  0.0000  0.0000  0.0000      0.0000  0.0000  0.0000  0.0000  0.0000  0.0000  0.0000  0.0000  0.0000  0.0000
  o =  0.0688  v =  0.0000  0.0000  0.0000  0.0000  0.0000  0.0000  0.0000  1.0000  0.0000  0.0000      0.0000  0.0000  0.0000  0.0000  0.0000  0.0000  0.0000  0.0000  0.0000  0.0000
  o =  0.0688  v =  0.0000  0.0000  0.0000  0.0000  0.0000  0.0000  0.0000  0.0000  1.0000  0.0000      0.0000  0.0000  0.0000  0.0000  0.0000  0.0000  0.0000  0.0000  0.0000  0.0000
  o =  0.0688  v =  0.0000  0.0000  0.0000  0.0000  0.0000  0.0000  0.0000  0.0000  0.0000  1.0000      0.0000  0.0000  0.0000  0.0000  0.0000  0.0000  0.0000  0.0000  0.0000  0.0000
  o =  0.6193  v =  1.0000  0.0000  0.0000  0.0000  0.0000  0.0000  0.0000  0.0000  0.0000  0.0000      0.0000  0.0000  0.0000  0.0000  0.0000  0.0000  0.0000  0.0000  0.0000  0.0000
  o =  0.6193  v =  0.0000  1.0000  0.0000  0.0000  0.0000  0.0000  0.0000  0.0000  0.0000  0.0000      0.0000  0.0000  0.0000  0.0000  0.0000  0.0000  0.0000  0.0000  0.0000  0.0000
  o =  0.6193  v =  0.0000  0.0000  1.0000  0.0000  0.0000  0.0000  0.0000  0.0000  0.0000  0.0000      0.0000  0.0000  0.0000  0.0000  0.0000  0.0000  0.0000  0.0000  0.0000  0.0000
  o =  0.6193  v =  0.0000  0.0000  0.0000  1.0000  0.0000  0.0000  0.0000  0.0000  0.0000  0.0000      0.0000  0.0000  0.0000  0.0000  0.0000  0.0000  0.0000  0.0000  0.0000  0.0000
  o =  0.6193  v =  0.0000  0.0000  0.0000  0.0000  1.0000  0.0000  0.0000  0.0000  0.0000  0.0000      0.0000  0.0000  0.0000  0.0000  0.0000  0.0000  0.0000  0.0000  0.0000  0.0000
atom =   2  type =  1  l = 2
 
 onsite density matrix
 
spin component  1
 
  0.6193  0.0000  0.0000  0.0000  0.0000
  0.0000  0.6193  0.0000  0.0000  0.0000
  0.0000  0.0000  0.6193  0.0000  0.0000
  0.0000  0.0000  0.0000  0.6193  0.0000
  0.0000  0.0000  0.0000  0.0000  0.6193
 
spin component  2
 
  0.0688  0.0000  0.0000  0.0000  0.0000
  0.0000  0.0688  0.0000  0.0000  0.0000
  0.0000  0.0000  0.0688  0.0000  0.0000
  0.0000  0.0000  0.0000  0.0688  0.0000
  0.0000  0.0000  0.0000  0.0000  0.0688
 
 occupancies and eigenvectors
 
  o =  0.0688  v =  0.0000  0.0000  0.0000  0.0000  0.0000  1.0000  0.0000  0.0000  0.0000  0.0000      0.0000  0.0000  0.0000  0.0000  0.0000  0.0000  0.0000  0.0000  0.0000  0.0000
  o =  0.0688  v =  0.0000  0.0000  0.0000  0.0000  0.0000  0.0000  1.0000  0.0000  0.0000  0.0000      0.0000  0.0000  0.0000  0.0000  0.0000  0.0000  0.0000  0.0000  0.0000  0.0000
  o =  0.0688  v =  0.0000  0.0000  0.0000  0.0000  0.0000  0.0000  0.0000  1.0000  0.0000  0.0000      0.0000  0.0000  0.0000  0.0000  0.0000  0.0000  0.0000  0.0000  0.0000  0.0000
  o =  0.0688  v =  0.0000  0.0000  0.0000  0.0000  0.0000  0.0000  0.0000  0.0000  1.0000  0.0000      0.0000  0.0000  0.0000  0.0000  0.0000  0.0000  0.0000  0.0000  0.0000  0.0000
  o =  0.0688  v =  0.0000  0.0000  0.0000  0.0000  0.0000  0.0000  0.0000  0.0000  0.0000  1.0000      0.0000  0.0000  0.0000  0.0000  0.0000  0.0000  0.0000  0.0000  0.0000  0.0000
  o =  0.6193  v =  1.0000  0.0000  0.0000  0.0000  0.0000  0.0000  0.0000  0.0000  0.0000  0.0000      0.0000  0.0000  0.0000  0.0000  0.0000  0.0000  0.0000  0.0000  0.0000  0.0000
  o =  0.6193  v =  0.0000  1.0000  0.0000  0.0000  0.0000  0.0000  0.0000  0.0000  0.0000  0.0000      0.0000  0.0000  0.0000  0.0000  0.0000  0.0000  0.0000  0.0000  0.0000  0.0000
  o =  0.6193  v =  0.0000  0.0000  1.0000  0.0000  0.0000  0.0000  0.0000  0.0000  0.0000  0.0000      0.0000  0.0000  0.0000  0.0000  0.0000  0.0000  0.0000  0.0000  0.0000  0.0000
  o =  0.6193  v =  0.0000  0.0000  0.0000  1.0000  0.0000  0.0000  0.0000  0.0000  0.0000  0.0000      0.0000  0.0000  0.0000  0.0000  0.0000  0.0000  0.0000  0.0000  0.0000  0.0000
  o =  0.6193  v =  0.0000  0.0000  0.0000  0.0000  1.0000  0.0000  0.0000  0.0000  0.0000  0.0000      0.0000  0.0000  0.0000  0.0000  0.0000  0.0000  0.0000  0.0000  0.0000  0.0000
atom =   3  type =  1  l = 2
 
 onsite density matrix
 
spin component  1
 
  0.6193  0.0000  0.0000  0.0000  0.0000
  0.0000  0.6193  0.0000  0.0000  0.0000
  0.0000  0.0000  0.6193  0.0000  0.0000
  0.0000  0.0000  0.0000  0.6193  0.0000
  0.0000  0.0000  0.0000  0.0000  0.6193
 
spin component  2
 
  0.0688  0.0000  0.0000  0.0000  0.0000
  0.0000  0.0688  0.0000  0.0000  0.0000
  0.0000  0.0000  0.0688  0.0000  0.0000
  0.0000  0.0000  0.0000  0.0688  0.0000
  0.0000  0.0000  0.0000  0.0000  0.0688
 
 occupancies and eigenvectors
 
  o =  0.0688  v =  0.0000  0.0000  0.0000  0.0000  0.0000  1.0000  0.0000  0.0000  0.0000  0.0000      0.0000  0.0000  0.0000  0.0000  0.0000  0.0000  0.0000  0.0000  0.0000  0.0000
  o =  0.0688  v =  0.0000  0.0000  0.0000  0.0000  0.0000  0.0000  1.0000  0.0000  0.0000  0.0000      0.0000  0.0000  0.0000  0.0000  0.0000  0.0000  0.0000  0.0000  0.0000  0.0000
  o =  0.0688  v =  0.0000  0.0000  0.0000  0.0000  0.0000  0.0000  0.0000  1.0000  0.0000  0.0000      0.0000  0.0000  0.0000  0.0000  0.0000  0.0000  0.0000  0.0000  0.0000  0.0000
  o =  0.0688  v =  0.0000  0.0000  0.0000  0.0000  0.0000  0.0000  0.0000  0.0000  1.0000  0.0000      0.0000  0.0000  0.0000  0.0000  0.0000  0.0000  0.0000  0.0000  0.0000  0.0000
  o =  0.0688  v =  0.0000  0.0000  0.0000  0.0000  0.0000  0.0000  0.0000  0.0000  0.0000  1.0000      0.0000  0.0000  0.0000  0.0000  0.0000  0.0000  0.0000  0.0000  0.0000  0.0000
  o =  0.6193  v =  1.0000  0.0000  0.0000  0.0000  0.0000  0.0000  0.0000  0.0000  0.0000  0.0000      0.0000  0.0000  0.0000  0.0000  0.0000  0.0000  0.0000  0.0000  0.0000  0.0000
  o =  0.6193  v =  0.0000  1.0000  0.0000  0.0000  0.0000  0.0000  0.0000  0.0000  0.0000  0.0000      0.0000  0.0000  0.0000  0.0000  0.0000  0.0000  0.0000  0.0000  0.0000  0.0000
  o =  0.6193  v =  0.0000  0.0000  1.0000  0.0000  0.0000  0.0000  0.0000  0.0000  0.0000  0.0000      0.0000  0.0000  0.0000  0.0000  0.0000  0.0000  0.0000  0.0000  0.0000  0.0000
  o =  0.6193  v =  0.0000  0.0000  0.0000  1.0000  0.0000  0.0000  0.0000  0.0000  0.0000  0.0000      0.0000  0.0000  0.0000  0.0000  0.0000  0.0000  0.0000  0.0000  0.0000  0.0000
  o =  0.6193  v =  0.0000  0.0000  0.0000  0.0000  1.0000  0.0000  0.0000  0.0000  0.0000  0.0000      0.0000  0.0000  0.0000  0.0000  0.0000  0.0000  0.0000  0.0000  0.0000  0.0000
atom =   4  type =  1  l = 2
 
 onsite density matrix
 
spin component  1
 
  0.6193  0.0000  0.0000  0.0000  0.0000
  0.0000  0.6193  0.0000  0.0000  0.0000
  0.0000  0.0000  0.6193  0.0000  0.0000
  0.0000  0.0000  0.0000  0.6193  0.0000
  0.0000  0.0000  0.0000  0.0000  0.6193
 
spin component  2
 
  0.0688  0.0000  0.0000  0.0000  0.0000
  0.0000  0.0688  0.0000  0.0000  0.0000
  0.0000  0.0000  0.0688  0.0000  0.0000
  0.0000  0.0000  0.0000  0.0688  0.0000
  0.0000  0.0000  0.0000  0.0000  0.0688
 
 occupancies and eigenvectors
 
  o =  0.0688  v =  0.0000  0.0000  0.0000  0.0000  0.0000  1.0000  0.0000  0.0000  0.0000  0.0000      0.0000  0.0000  0.0000  0.0000  0.0000  0.0000  0.0000  0.0000  0.0000  0.0000
  o =  0.0688  v =  0.0000  0.0000  0.0000  0.0000  0.0000  0.0000  1.0000  0.0000  0.0000  0.0000      0.0000  0.0000  0.0000  0.0000  0.0000  0.0000  0.0000  0.0000  0.0000  0.0000
  o =  0.0688  v =  0.0000  0.0000  0.0000  0.0000  0.0000  0.0000  0.0000  1.0000  0.0000  0.0000      0.0000  0.0000  0.0000  0.0000  0.0000  0.0000  0.0000  0.0000  0.0000  0.0000
  o =  0.0688  v =  0.0000  0.0000  0.0000  0.0000  0.0000  0.0000  0.0000  0.0000  1.0000  0.0000      0.0000  0.0000  0.0000  0.0000  0.0000  0.0000  0.0000  0.0000  0.0000  0.0000
  o =  0.0688  v =  0.0000  0.0000  0.0000  0.0000  0.0000  0.0000  0.0000  0.0000  0.0000  1.0000      0.0000  0.0000  0.0000  0.0000  0.0000  0.0000  0.0000  0.0000  0.0000  0.0000
  o =  0.6193  v =  1.0000  0.0000  0.0000  0.0000  0.0000  0.0000  0.0000  0.0000  0.0000  0.0000      0.0000  0.0000  0.0000  0.0000  0.0000  0.0000  0.0000  0.0000  0.0000  0.0000
  o =  0.6193  v =  0.0000  1.0000  0.0000  0.0000  0.0000  0.0000  0.0000  0.0000  0.0000  0.0000      0.0000  0.0000  0.0000  0.0000  0.0000  0.0000  0.0000  0.0000  0.0000  0.0000
  o =  0.6193  v =  0.0000  0.0000  1.0000  0.0000  0.0000  0.0000  0.0000  0.0000  0.0000  0.0000      0.0000  0.0000  0.0000  0.0000  0.0000  0.0000  0.0000  0.0000  0.0000  0.0000
  o =  0.6193  v =  0.0000  0.0000  0.0000  1.0000  0.0000  0.0000  0.0000  0.0000  0.0000  0.0000      0.0000  0.0000  0.0000  0.0000  0.0000  0.0000  0.0000  0.0000  0.0000  0.0000
  o =  0.6193  v =  0.0000  0.0000  0.0000  0.0000  1.0000  0.0000  0.0000  0.0000  0.0000  0.0000      0.0000  0.0000  0.0000  0.0000  0.0000  0.0000  0.0000  0.0000  0.0000  0.0000
atom =   5  type =  1  l = 2
 
 onsite density matrix
 
spin component  1
 
  0.6193  0.0000  0.0000  0.0000  0.0000
  0.0000  0.6193  0.0000  0.0000  0.0000
  0.0000  0.0000  0.6193  0.0000  0.0000
  0.0000  0.0000  0.0000  0.6193  0.0000
  0.0000  0.0000  0.0000  0.0000  0.6193
 
spin component  2
 
  0.0688  0.0000  0.0000  0.0000  0.0000
  0.0000  0.0688  0.0000  0.0000  0.0000
  0.0000  0.0000  0.0688  0.0000  0.0000
  0.0000  0.0000  0.0000  0.0688  0.0000
  0.0000  0.0000  0.0000  0.0000  0.0688
 
 occupancies and eigenvectors
 
  o =  0.0688  v =  0.0000  0.0000  0.0000  0.0000  0.0000  1.0000  0.0000  0.0000  0.0000  0.0000      0.0000  0.0000  0.0000  0.0000  0.0000  0.0000  0.0000  0.0000  0.0000  0.0000
  o =  0.0688  v =  0.0000  0.0000  0.0000  0.0000  0.0000  0.0000  1.0000  0.0000  0.0000  0.0000      0.0000  0.0000  0.0000  0.0000  0.0000  0.0000  0.0000  0.0000  0.0000  0.0000
  o =  0.0688  v =  0.0000  0.0000  0.0000  0.0000  0.0000  0.0000  0.0000  1.0000  0.0000  0.0000      0.0000  0.0000  0.0000  0.0000  0.0000  0.0000  0.0000  0.0000  0.0000  0.0000
  o =  0.0688  v =  0.0000  0.0000  0.0000  0.0000  0.0000  0.0000  0.0000  0.0000  1.0000  0.0000      0.0000  0.0000  0.0000  0.0000  0.0000  0.0000  0.0000  0.0000  0.0000  0.0000
  o =  0.0688  v =  0.0000  0.0000  0.0000  0.0000  0.0000  0.0000  0.0000  0.0000  0.0000  1.0000      0.0000  0.0000  0.0000  0.0000  0.0000  0.0000  0.0000  0.0000  0.0000  0.0000
  o =  0.6193  v =  1.0000  0.0000  0.0000  0.0000  0.0000  0.0000  0.0000  0.0000  0.0000  0.0000      0.0000  0.0000  0.0000  0.0000  0.0000  0.0000  0.0000  0.0000  0.0000  0.0000
  o =  0.6193  v =  0.0000  1.0000  0.0000  0.0000  0.0000  0.0000  0.0000  0.0000  0.0000  0.0000      0.0000  0.0000  0.0000  0.0000  0.0000  0.0000  0.0000  0.0000  0.0000  0.0000
  o =  0.6193  v =  0.0000  0.0000  1.0000  0.0000  0.0000  0.0000  0.0000  0.0000  0.0000  0.0000      0.0000  0.0000  0.0000  0.0000  0.0000  0.0000  0.0000  0.0000  0.0000  0.0000
  o =  0.6193  v =  0.0000  0.0000  0.0000  1.0000  0.0000  0.0000  0.0000  0.0000  0.0000  0.0000      0.0000  0.0000  0.0000  0.0000  0.0000  0.0000  0.0000  0.0000  0.0000  0.0000
  o =  0.6193  v =  0.0000  0.0000  0.0000  0.0000  1.0000  0.0000  0.0000  0.0000  0.0000  0.0000      0.0000  0.0000  0.0000  0.0000  0.0000  0.0000  0.0000  0.0000  0.0000  0.0000
atom =   6  type =  1  l = 2
 
 onsite density matrix
 
spin component  1
 
  0.6193  0.0000  0.0000  0.0000  0.0000
  0.0000  0.6193  0.0000  0.0000  0.0000
  0.0000  0.0000  0.6193  0.0000  0.0000
  0.0000  0.0000  0.0000  0.6193  0.0000
  0.0000  0.0000  0.0000  0.0000  0.6193
 
spin component  2
 
  0.0688  0.0000  0.0000  0.0000  0.0000
  0.0000  0.0688  0.0000  0.0000  0.0000
  0.0000  0.0000  0.0688  0.0000  0.0000
  0.0000  0.0000  0.0000  0.0688  0.0000
  0.0000  0.0000  0.0000  0.0000  0.0688
 
 occupancies and eigenvectors
 
  o =  0.0688  v =  0.0000  0.0000  0.0000  0.0000  0.0000  1.0000  0.0000  0.0000  0.0000  0.0000      0.0000  0.0000  0.0000  0.0000  0.0000  0.0000  0.0000  0.0000  0.0000  0.0000
  o =  0.0688  v =  0.0000  0.0000  0.0000  0.0000  0.0000  0.0000  1.0000  0.0000  0.0000  0.0000      0.0000  0.0000  0.0000  0.0000  0.0000  0.0000  0.0000  0.0000  0.0000  0.0000
  o =  0.0688  v =  0.0000  0.0000  0.0000  0.0000  0.0000  0.0000  0.0000  1.0000  0.0000  0.0000      0.0000  0.0000  0.0000  0.0000  0.0000  0.0000  0.0000  0.0000  0.0000  0.0000
  o =  0.0688  v =  0.0000  0.0000  0.0000  0.0000  0.0000  0.0000  0.0000  0.0000  1.0000  0.0000      0.0000  0.0000  0.0000  0.0000  0.0000  0.0000  0.0000  0.0000  0.0000  0.0000
  o =  0.0688  v =  0.0000  0.0000  0.0000  0.0000  0.0000  0.0000  0.0000  0.0000  0.0000  1.0000      0.0000  0.0000  0.0000  0.0000  0.0000  0.0000  0.0000  0.0000  0.0000  0.0000
  o =  0.6193  v =  1.0000  0.0000  0.0000  0.0000  0.0000  0.0000  0.0000  0.0000  0.0000  0.0000      0.0000  0.0000  0.0000  0.0000  0.0000  0.0000  0.0000  0.0000  0.0000  0.0000
  o =  0.6193  v =  0.0000  1.0000  0.0000  0.0000  0.0000  0.0000  0.0000  0.0000  0.0000  0.0000      0.0000  0.0000  0.0000  0.0000  0.0000  0.0000  0.0000  0.0000  0.0000  0.0000
[...]
   0.508E+00 -.146E+02 0.254E+02   0.434E-02 0.149E+02 -.261E+02   -.995E+00 -.575E+00 0.974E+00
   -.244E+02 -.119E+02 -.212E+02   0.240E+02 0.128E+02 0.214E+02   0.699E+00 -.101E+01 0.842E-01
   0.838E+02 -.471E+01 0.463E+01   -.836E+02 0.538E+01 -.499E+01   -.822E+00 -.175E+00 0.139E-01
   0.710E+02 0.436E+02 0.311E+01   -.724E+02 -.439E+02 -.246E+01   0.293E+00 -.363E+00 0.957E-01
   0.484E+02 0.807E+02 -.104E+02   -.489E+02 -.816E+02 0.105E+02   0.372E-01 0.413E-01 -.149E-01
   0.561E+02 0.122E+03 0.352E+02   -.540E+02 -.119E+03 -.355E+02   -.188E+01 -.328E+01 0.216E+00
   0.112E+03 0.553E+02 -.308E+02   -.108E+03 -.537E+02 0.286E+02   -.369E+01 -.170E+01 0.231E+01
   0.157E+03 -.157E+02 0.341E+01   -.150E+03 0.166E+02 -.234E+01   -.652E+01 -.776E+00 -.113E+01
   -.371E+02 -.664E+02 -.135E+02   0.364E+02 0.634E+02 0.999E+01   0.792E+00 0.309E+01 0.370E+01
   -.157E+02 -.737E+02 0.152E+02   0.158E+02 0.704E+02 -.131E+02   -.105E+00 0.340E+01 -.212E+01
   -.106E+02 -.216E+02 0.354E+02   0.109E+02 0.177E+02 -.387E+02   -.414E+00 0.414E+01 0.343E+01
   -.891E+02 -.853E+01 -.385E+01   0.861E+02 0.105E+02 0.560E+01   0.300E+01 -.193E+01 -.174E+01
   -.840E+02 0.605E+01 0.463E+01   0.795E+02 -.222E+01 -.825E+01   0.468E+01 -.395E+01 0.375E+01
   -.137E+03 -.581E+02 0.165E+01   0.132E+03 0.555E+02 0.334E+00   0.571E+01 0.261E+01 -.202E+01
   0.276E+01 0.546E+01 0.621E+01   -.255E+01 -.538E+01 -.623E+01   -.295E+00 -.118E+00 -.116E-01
   -.138E+01 -.240E+01 0.416E+01   0.151E+01 0.223E+01 -.407E+01   -.188E+00 0.204E+00 -.885E-01
   0.663E+00 -.334E+01 -.375E+01   -.787E+00 0.321E+01 0.364E+01   0.114E+00 0.177E+00 0.123E+00
   0.788E+01 0.216E+01 0.696E+01   -.729E+01 -.183E+01 -.674E+01   -.739E+00 -.347E+00 -.301E+00
   0.135E+01 0.615E+00 -.290E+01   -.157E+01 -.872E+00 0.282E+01   0.278E+00 0.317E+00 0.127E+00
   -.388E+01 -.167E+01 0.157E+01   0.368E+01 0.187E+01 -.112E+01   0.240E+00 -.243E+00 -.593E+00
   -.163E+01 -.494E+00 0.121E+01   0.137E+01 0.531E+00 -.133E+01   0.380E+00 -.269E-01 0.132E+00
   0.596E+01 -.122E+01 -.885E+00   -.538E+01 0.109E+01 0.959E+00   -.723E+00 0.184E+00 -.101E+00
   -.329E+01 -.327E+01 0.530E+01   0.285E+01 0.304E+01 -.493E+01   0.530E+00 0.320E+00 -.484E+00
   0.338E+01 0.608E+01 -.143E+02   -.308E+01 -.601E+01 0.139E+02   -.360E+00 -.119E+00 0.653E+00
   -.166E+01 -.263E+01 -.825E+00   0.190E+01 0.270E+01 0.670E+00   -.291E+00 -.102E+00 0.190E+00
   -.735E+01 0.153E+01 -.342E+01   0.673E+01 -.104E+01 0.329E+01   0.813E+00 -.639E+00 0.170E+00
   -.823E+01 0.120E+02 -.213E+03   0.943E+01 -.109E+02 0.225E+03   -.119E+01 -.113E+01 -.126E+02
   -.330E+02 -.432E+02 -.298E+03   0.270E+02 0.468E+02 0.316E+03   0.597E+01 -.360E+01 -.184E+02
   -.581E+02 -.253E+02 0.321E+03   0.535E+02 0.199E+02 -.336E+03   0.454E+01 0.534E+01 0.152E+02
   -.815E+02 -.367E+02 0.266E+03   0.807E+02 0.342E+02 -.285E+03   0.801E+00 0.243E+01 0.188E+02
   0.356E+02 0.252E+02 -.257E+03   -.322E+02 -.251E+02 0.271E+03   -.334E+01 -.161E+00 -.147E+02
   -.204E+02 -.390E+02 -.284E+03   0.134E+02 0.397E+02 0.300E+03   0.710E+01 -.660E+00 -.165E+02
   -.346E+02 -.390E+02 0.299E+03   0.298E+02 0.372E+02 -.312E+03   0.474E+01 0.185E+01 0.126E+02
   -.493E+02 -.310E+02 0.266E+03   0.452E+02 0.293E+02 -.282E+03   0.411E+01 0.162E+01 0.156E+02
   -.125E+01 -.175E+02 -.220E+03   0.213E+01 0.176E+02 0.235E+03   -.832E+00 -.177E+00 -.148E+02
   -.657E+02 -.698E+01 -.281E+03   0.615E+02 0.222E+01 0.297E+03   0.417E+01 0.473E+01 -.158E+02
   -.703E+02 -.307E+02 0.299E+03   0.645E+02 0.264E+02 -.313E+03   0.583E+01 0.431E+01 0.143E+02
   -.624E+02 -.503E+02 0.266E+03   0.570E+02 0.499E+02 -.281E+03   0.537E+01 0.362E+00 0.151E+02
   0.500E+02 0.531E+02 -.258E+03   -.457E+02 -.523E+02 0.273E+03   -.428E+01 -.803E+00 -.151E+02
   -.110E+01 0.951E+02 -.285E+03   0.512E+01 -.936E+02 0.297E+03   -.406E+01 -.192E+01 -.120E+02
   0.382E+01 0.128E+02 0.240E+03   -.596E+01 -.104E+02 -.254E+03   0.216E+01 -.236E+01 0.140E+02
   0.199E+02 0.160E+02 0.213E+03   -.195E+02 -.148E+02 -.226E+03   -.378E+00 -.123E+01 0.130E+02
   0.264E+02 0.451E+02 -.309E+03   -.269E+02 -.370E+02 0.325E+03   0.486E+00 -.809E+01 -.156E+02
   0.545E+02 0.330E+02 -.330E+03   -.471E+02 -.317E+02 0.344E+03   -.707E+01 -.127E+01 -.142E+02
   0.639E+02 0.545E+02 0.290E+03   -.628E+02 -.537E+02 -.303E+03   -.156E+01 -.104E+01 0.130E+02
   0.324E+02 0.755E+02 0.247E+03   -.343E+02 -.732E+02 -.261E+03   0.200E+01 -.226E+01 0.145E+02
   0.548E+02 -.120E+02 -.317E+03   -.480E+02 0.621E+01 0.336E+03   -.681E+01 0.569E+01 -.184E+02
   0.610E+02 -.187E+02 -.257E+03   -.563E+02 0.189E+02 0.269E+03   -.467E+01 -.277E+00 -.125E+02
   0.658E+02 -.172E+02 0.285E+03   -.643E+02 0.251E+02 -.301E+03   -.148E+01 -.792E+01 0.161E+02
   0.620E+02 -.257E+02 0.258E+03   -.565E+02 0.267E+02 -.273E+03   -.559E+01 -.101E+01 0.148E+02
   -.437E+02 -.276E+02 -.302E+03   0.371E+02 0.251E+02 0.317E+03   0.661E+01 0.244E+01 -.143E+02
   0.357E+02 0.924E+01 -.321E+03   -.314E+02 -.451E+01 0.339E+03   -.430E+01 -.475E+01 -.172E+02
   0.503E+02 0.106E+01 0.333E+03   -.429E+02 -.909E+01 -.351E+03   -.744E+01 0.809E+01 0.182E+02
   0.638E+02 0.183E+02 0.307E+03   -.621E+02 -.168E+02 -.322E+03   -.171E+01 -.158E+01 0.156E+02
   -.433E+02 0.680E+01 -.386E+03   0.455E+02 -.574E+01 0.400E+03   -.180E+01 -.108E+01 -.143E+02
   -.675E+00 0.488E+02 0.330E+03   -.309E+00 -.388E+02 -.345E+03   0.789E+00 -.972E+01 0.146E+02
   0.256E+02 0.437E+02 0.309E+03   -.183E+02 -.406E+02 -.326E+03   -.735E+01 -.312E+01 0.176E+02
   -.556E+02 -.473E+02 -.305E+03   0.494E+02 0.440E+02 0.320E+03   0.626E+01 0.329E+01 -.147E+02
   0.152E+01 -.151E+02 -.376E+03   -.929E+00 0.143E+02 0.390E+03   -.612E+00 0.791E+00 -.140E+02
   0.118E+02 -.297E+02 0.396E+03   -.109E+02 0.330E+02 -.409E+03   -.102E+01 -.306E+01 0.128E+02
   0.326E+01 -.379E+01 0.352E+03   -.371E+01 0.434E+01 -.367E+03   0.421E+00 -.535E+00 0.147E+02
   -.835E+02 -.283E+02 -.329E+03   0.827E+02 0.252E+02 0.341E+03   0.865E+00 0.309E+01 -.125E+02
 -----------------------------------------------------------------------------------------------
   0.248E+01 0.139E+02 -.105E+02   0.185E-12 -.888E-13 -.284E-12   -.249E+01 -.139E+02 0.106E+02
 
 
 POSITION                                       TOTAL-FORCE (eV/Angst)
 -----------------------------------------------------------------------------------
      4.32997      7.57208      0.04710         0.010496      0.046178     -0.021370
      8.62445      0.01844      5.52495         0.000618     -0.046067      0.029033
      7.25237      2.46797      0.02279         0.011870      0.006394     -0.024850
     -1.54910      2.68603      5.45100        -0.227978     -0.185572     -0.242689
     -2.88271      5.13754     10.76481        -0.134644     -0.108901     -0.033098
      5.74839      5.12403      5.50464        -0.043374     -0.002739      0.035040
     -1.35023      7.60288      0.02362         0.105120      0.274683     -0.010709
      3.04557      0.03293      5.33285        -0.017354     -0.234701      0.229635
      1.54007      2.63898      0.07239        -0.018339     -0.003585      0.015833
      1.43174      2.54382      5.36128         0.352758      0.517363     -0.089491
     -0.01657      5.13142     10.91720         0.006477     -0.001501      0.037623
      0.03429      5.05557      5.47587        -0.027655      0.058696     -0.031382
      1.41175      7.60210     10.86416         0.014886      0.017532      0.042496
      1.42462      7.55668      5.49457         0.020763     -0.019466      0.026178
      4.36270      2.51246     10.80164        -0.064047      0.010231      0.015935
      4.31319      2.54837      5.47301        -0.017430      0.054468      0.055421
      2.82881      5.12723     10.88396         0.003134     -0.007567      0.003638
      2.81110      5.04688      5.48298         0.015622     -0.042007      0.020896
      1.45195      0.76273      2.71874        -0.020362     -0.023016     -0.033477
      7.25488      0.76320      2.72536         0.001296      0.001887      0.021164
     -3.03974      7.00928      8.21014        -0.028213     -0.010638     -0.015509
     -0.07026      3.63152      2.73395         0.011245      0.034817     -0.013276
     -1.33968      4.19957      8.21407        -0.016447     -0.007656      0.018856
      5.75469      1.66088      8.18772        -0.012875      0.017000     -0.003194
      4.43937      1.03755      2.68238         0.020421     -0.002157     -0.015374
      0.11596      6.72917      8.19523        -0.001890      0.017147     -0.001961
      2.84415      4.98518      2.78902        -0.018730      0.025633     -0.000770
      1.41769      2.41580      8.09327         0.011725     -0.014052      0.094770
     -2.81320      5.17791      2.73149        -0.000045     -0.011092     -0.000715
      2.84425      5.21021      8.17130         0.010122     -0.014474     -0.001310
      0.01006      1.68592      1.13570         0.007861     -0.016224      0.017743
      7.39837      0.85083      6.51696         0.020428      0.001086      0.024150
      3.06739      6.84994      4.40198         0.009148     -0.008800     -0.015700
      7.37585      0.90337      9.84588         0.011204     -0.000287     -0.009964
     -1.57848      4.28613      1.01356         0.061531      0.006912     -0.014642
      5.93458      3.35667      6.55869         0.091017     -0.010337     -0.031172
      5.95533      1.69404      4.48384        -0.027416      0.016379      0.020095
      5.90783      3.41286      9.76929         0.063338     -0.053170     -0.028042
     -2.90484      6.73465      1.03782         0.046240     -0.099947     -0.061561
      4.39729      6.08621      6.57272        -0.020243     -0.032732      0.018925
      4.49049      4.34845      4.45274        -0.022138     -0.014198     -0.056659
      4.43852      5.89807      9.84934        -0.019743      0.013618      0.009496
      2.85417      1.69184      1.04805         0.003176     -0.011674      0.009473
      1.40047      0.84438      6.37084        -0.029149     -0.452832      0.131399
     -2.99096      6.81125      4.47674         0.009663      0.011376     -0.016003
      1.39104      0.87229      9.96808        -0.005763     -0.002253     -0.010725
      1.47753      4.07480      1.14559         0.005360      0.004485     -0.016611
     -0.18507      3.24980      6.51301         0.335823     -0.010200      0.002489
     -0.08677      1.69736      4.40536        -0.410139     -0.212582     -0.175980
     -0.00318      3.27117      9.97292         0.013919      0.015273     -0.007000
     -0.13881      6.87712      1.11418         0.017045     -0.056552     -0.022588
     -1.61139      5.96726      6.52391         0.037516     -0.011362     -0.038044
     -1.56740      4.16267      4.41215         0.028540     -0.018685     -0.020906
     -1.55025      6.01203      9.72142        -0.090600     -0.007573      0.158101
      5.95621      1.73227      1.06605        -0.017525     -0.009910      0.002040
      4.20701      0.73552      6.51398        -0.016899     -0.018689     -0.016654
     -0.18637      6.81964      4.35726        -0.074937      0.062067      0.001154
      4.28840      0.84205      9.75953         0.037096      0.000456     -0.020120
      2.76801      3.29662      6.42878         0.388261     -0.022484      0.437468
      2.90640      1.50742      4.30485        -0.194367      0.277291     -0.032252
      2.70949      3.33436      9.85669        -0.000634      0.005439      0.009793
      3.07697      6.78692      1.11278         0.007797      0.006828      0.016248
      1.41514      5.93124      6.53073        -0.025271      0.014220     -0.002230
      1.40441      4.11283      4.36579        -0.177880      0.277330     -0.386713
      1.41129      5.91647      9.87050        -0.028343      0.015003      0.015297
      4.42889      4.23673      1.09939         0.018914     -0.004109      0.002353
 -----------------------------------------------------------------------------------
    total drift:                               -0.007174      0.003153      0.062463


--------------------------------------------------------------------------------------------------------



  FREE ENERGIE OF THE ION-ELECTRON SYSTEM (eV)
  ---------------------------------------------------
  free  energy   TOTEN  =      -387.94229954 eV

  energy  without entropy=     -387.94229954  energy(sigma->0) =     -387.94229954
 


--------------------------------------------------------------------------------------------------------


    POTLOK:  cpu time    0.0380: real time    0.0380


--------------------------------------------------------------------------------------------------------


 writing wavefunctions
     LOOP+:  cpu time 3005.1414: real time 3011.2041
    4ORBIT:  cpu time    0.0000: real time    0.0000
 


 total charge     
 
# of ion       s       p       d       tot
------------------------------------------
    1        0.527   1.004   3.406   4.937
    2        0.614   1.194   3.520   5.328
    3        0.536   1.013   3.432   4.981
    4        0.620   1.212   3.530   5.361
    5        0.540   1.012   3.437   4.988
    6        0.522   1.017   3.446   4.984
    7        0.539   1.004   3.473   5.017
    8        0.628   1.187   3.582   5.397
    9        0.618   1.193   3.515   5.326
   10        0.440   0.623   8.149   9.212
   11        0.359   0.460   8.272   9.091
   12        0.365   0.460   8.280   9.105
   13        0.359   0.463   8.283   9.105
   14        0.368   0.477   8.285   9.130
   15        0.346   0.438   8.253   9.037
   16        0.347   0.440   8.252   9.040
   17        0.367   0.471   8.301   9.139
   18        0.373   0.476   8.301   9.150
   19        0.057   0.052   0.000   0.109
   20        0.059   0.055   0.000   0.114
   21        0.056   0.053   0.000   0.109
   22        0.056   0.051   0.000   0.107
   23        0.055   0.051   0.000   0.107
   24        0.050   0.044   0.000   0.093
   25        0.051   0.047   0.000   0.097
   26        0.062   0.056   0.000   0.118
   27        0.050   0.045   0.000   0.095
   28        0.054   0.048   0.000   0.102
   29        0.055   0.050   0.000   0.106
   30        0.054   0.048   0.000   0.102
   31        1.587   3.479   0.000   5.066
   32        1.605   3.433   0.000   5.039
   33        1.597   3.448   0.000   5.046
   34        1.595   3.455   0.000   5.050
   35        1.590   3.484   0.000   5.074
   36        1.595   3.462   0.000   5.057
   37        1.591   3.460   0.000   5.051
   38        1.588   3.479   0.000   5.068
   39        1.589   3.492   0.000   5.081
   40        1.596   3.471   0.000   5.067
   41        1.595   3.459   0.000   5.054
   42        1.592   3.481   0.000   5.073
   43        1.592   3.473   0.000   5.065
   44        1.594   3.476   0.000   5.070
   45        1.592   3.470   0.000   5.063
   46        1.591   3.483   0.000   5.074
   47        1.597   3.461   0.000   5.058
   48        1.598   3.456   0.000   5.054
   49        1.591   3.466   0.000   5.058
   50        1.594   3.469   0.000   5.062
   51        1.600   3.441   0.000   5.041
   52        1.591   3.469   0.000   5.060
   53        1.598   3.469   0.000   5.067
   54        1.589   3.483   0.000   5.072
   55        1.592   3.471   0.000   5.063
   56        1.598   3.447   0.000   5.045
   57        1.604   3.426   0.000   5.030
   58        1.585   3.475   0.000   5.061
   59        1.586   3.454   0.000   5.040
   60        1.597   3.466   0.000   5.063
   61        1.599   3.449   0.000   5.048
   62        1.593   3.464   0.000   5.057
   63        1.578   3.489   0.000   5.067
   64        1.584   3.468   0.000   5.052
   65        1.578   3.489   0.000   5.067
   66        1.772   4.382   0.000   6.154
--------------------------------------------------
tot         66.639 140.447 105.717 312.803
 


 magnetization (x)
 
# of ion       s       p       d       tot
------------------------------------------
    1        0.012   0.013   1.089   1.114
    2        0.005   0.007   0.172   0.183
    3        0.012   0.013   1.071   1.095
    4        0.003   0.002   0.082   0.087
    5        0.014   0.014   1.074   1.102
    6        0.011   0.014   1.092   1.117
    7        0.011   0.012   1.088   1.111
    8        0.001   0.004   0.161   0.166
    9        0.001   0.003   0.164   0.168
   10        0.006   0.010   2.091   2.107
   11        0.010   0.004   1.731   1.746
   12        0.005   0.008   1.738   1.751
   13        0.005   0.004   1.729   1.737
   14        0.014   0.005   1.716   1.735
   15        0.007   0.006   1.765   1.779
   16        0.007   0.005   1.751   1.762
   17        0.007   0.008   1.729   1.745
   18        0.008   0.010   1.718   1.736
   19        0.001   0.000   0.000   0.001
   20        0.001   0.001   0.000   0.002
   21        0.001   0.001   0.000   0.002
   22        0.001   0.001   0.000   0.002
   23        0.001   0.001   0.000   0.002
   24        0.000  -0.000   0.000   0.000
   25        0.000   0.000   0.000   0.001
   26        0.002   0.002   0.000   0.004
   27        0.001   0.001   0.000   0.001
   28        0.000   0.000   0.000   0.001
   29       -0.000   0.000   0.000   0.000
   30        0.001   0.001   0.000   0.002
   31        0.000  -0.008   0.000  -0.008
   32        0.003   0.006   0.000   0.009
   33        0.005   0.016   0.000   0.021
   34        0.002   0.014   0.000   0.016
   35        0.001  -0.015   0.000  -0.013
   36        0.003   0.035   0.000   0.038
   37        0.004   0.020   0.000   0.024
   38        0.002   0.027   0.000   0.029
   39        0.000   0.005   0.000   0.005
   40        0.003   0.014   0.000   0.016
   41        0.004  -0.034   0.000  -0.031
   42        0.002  -0.011   0.000  -0.009
   43        0.003   0.024   0.000   0.027
   44        0.003   0.072   0.000   0.075
   45        0.000   0.001   0.000   0.001
   46       -0.000  -0.032   0.000  -0.032
   47        0.005   0.027   0.000   0.032
   48        0.006   0.068   0.000   0.074
   49        0.004   0.081   0.000   0.084
   50        0.003   0.004   0.000   0.007
   51        0.004  -0.019   0.000  -0.015
   52        0.002  -0.013   0.000  -0.011
   53        0.002   0.018   0.000   0.020
   54        0.002   0.016   0.000   0.018
   55        0.003  -0.002   0.000   0.002
   56        0.005   0.034   0.000   0.039
   57        0.005   0.023   0.000   0.028
   58        0.005   0.071   0.000   0.076
   59        0.010   0.298   0.000   0.309
   60        0.006   0.067   0.000   0.074
   61        0.005   0.035   0.000   0.040
   62        0.004  -0.009   0.000  -0.005
   63        0.007   0.105   0.000   0.112
   64        0.011   0.287   0.000   0.298
   65        0.007   0.112   0.000   0.120
   66        0.003   0.027   0.000   0.030
--------------------------------------------------
tot          0.282   1.515  21.962  23.758
 

 total amount of memory used by VASP MPI-rank0  1021204. kBytes
=======================================================================

   base      :      30000. kBytes
   nonl-proj :     629736. kBytes
   fftplans  :       1170. kBytes
   grid      :      12217. kBytes
   one-center:       2052. kBytes
   wavefun   :     346029. kBytes
 
  
  
 General timing and accounting informations for this job:
 ========================================================
  
                  Total CPU time used (sec):     3080.527
                            User time (sec):     3033.163
                          System time (sec):       47.364
                         Elapsed time (sec):     3088.724
  
                   Maximum memory used (kb):     1694940.
                   Average memory used (kb):           0.
  
                          Minor page faults:       748353
                          Major page faults:            0
                 Voluntary context switches:       102309
