 vasp.6.4.2 20Jul23 (build Jul 20 2023 23:11:14) complex                        
  
 executed on           TETRA_NSC1 date 2024.03.08  20:13:43
 running  128 mpi-ranks, with    1 threads/rank, on    4 nodes
 distrk:  each k-point on  128 cores,    1 groups
 distr:  one band on NCORE=   1 cores,  128 groups


--------------------------------------------------------------------------------------------------------


 INCAR:
   SYSTEM = \"Li3FeCl6\"
   ENCUT = 400
   EDIFF = 1E-7
   LORBIT = 11
   LREAL = .FALSE.
   EDIFFG = -0.01
   NELMIN = 6
   NELM = 200
   IALGO = 48
   NSW = 0
   IBRION = -1
   ISYM = 2
   PREC = L
   ISTART = 0
   ICHARG = 2
   TIME = 0.04
   ISMEAR = 0
   SMEAR = 0.1
   ISPIN = 2
   MAGMOM = 48*0 8*4 24*0
   AMIX = 0.2
   BMIX = 0.00001
   AMIX_MAG = 0.8
   BMIX_MAG = 0.00001
   LWAVE = F
   LCHARG = T

 POTCAR:    PAW_PBE Cl 17Jan2003                  
 POTCAR:   PAW_PBE Fe 06Sep2000                   
 POTCAR:    PAW_PBE Li 17Jan2003                  
 POTCAR:    PAW_PBE Cl 17Jan2003                  
   VRHFIN =Cl: s2p5                                                                                 
   LEXCH  = PE                                                                                      
   EATOM  =   409.7259 eV,   30.1140 Ry                                                             
                                                                                                    
   TITEL  = PAW_PBE Cl 17Jan2003                                                                    
   LULTRA =        F    use ultrasoft PP ?                                                          
   IUNSCR =        1    unscreen: 0-lin 1-nonlin 2-no                                               
   RPACOR =    1.500    partial core radius                                                         
   POMASS =   35.453; ZVAL   =    7.000    mass and valenz                                          
   RCORE  =    1.900    outmost cutoff radius                                                       
   RWIGS  =    2.100; RWIGS  =    1.111    wigner-seitz radius (au A)                               
   ENMAX  =  280.000; ENMIN  =  196.854 eV                                                          
   ICORE  =        2    local potential                                                             
   LCOR   =        T    correct aug charges                                                         
   LPAW   =        T    paw PP                                                                      
   EAUG   =  356.192                                                                                
   DEXC   =     .000                                                                                
   RMAX   =    2.846    core radius for proj-oper                                                   
   RAUG   =    1.300    factor for augmentation sphere                                              
   RDEP   =    2.020    radius for radial grids                                                     
   QCUT   =   -4.392; QGAM   =    8.784    optimization parameters                                  
                                                                                                    
   Description                                                                                      
     l     E      TYP  RCUT    TYP  RCUT                                                            
     0   .000     23  1.900                                                                         
     0   .000     23  1.900                                                                         
     1   .000     23  1.900                                                                         
     1   .000     23  1.900                                                                         
     2   .000     23  1.900                                                                         
  local pseudopotential read in
  partial core-charges read in
  atomic valenz-charges read in
  non local Contribution for L=           0  read in
    real space projection operators read in
  non local Contribution for L=           0  read in
    real space projection operators read in
  non local Contribution for L=           1  read in
    real space projection operators read in
  non local Contribution for L=           1  read in
    real space projection operators read in
    PAW grid and wavefunctions read in
 
   number of l-projection  operators is LMAX  =           4
   number of lm-projection operators is LMMAX =           8
 
 POTCAR:   PAW_PBE Fe 06Sep2000                   
   VRHFIN =Fe:  d7 s1                                                                               
   LEXCH  = PE                                                                                      
   EATOM  =   594.4687 eV,   43.6922 Ry                                                             
                                                                                                    
   TITEL  = PAW_PBE Fe 06Sep2000                                                                    
   LULTRA =        F    use ultrasoft PP ?                                                          
   IUNSCR =        1    unscreen: 0-lin 1-nonlin 2-no                                               
   RPACOR =    2.000    partial core radius                                                         
   POMASS =   55.847; ZVAL   =    8.000    mass and valenz                                          
   RCORE  =    2.300    outmost cutoff radius                                                       
   RWIGS  =    2.460; RWIGS  =    1.302    wigner-seitz radius (au A)                               
   ENMAX  =  267.883; ENMIN  =  200.912 eV                                                          
   RCLOC  =    1.701    cutoff for local pot                                                        
   LCOR   =        T    correct aug charges                                                         
   LPAW   =        T    paw PP                                                                      
   EAUG   =  511.368                                                                                
   DEXC   =    -.022                                                                                
   RMAX   =    2.817    core radius for proj-oper                                                   
   RAUG   =    1.300    factor for augmentation sphere                                              
   RDEP   =    2.442    radius for radial grids                                                     
   QCUT   =   -4.437; QGAM   =    8.874    optimization parameters                                  
                                                                                                    
   Description                                                                                      
     l     E      TYP  RCUT    TYP  RCUT                                                            
     2   .000     23  2.300                                                                         
     2   .000     23  2.300                                                                         
     0   .000     23  2.300                                                                         
     0   .000     23  2.300                                                                         
     1  -.200     23  2.300                                                                         
     1   .000     23  2.300                                                                         
     3   .000      7   .000                                                                         
  local pseudopotential read in
  partial core-charges read in
  atomic valenz-charges read in
  non local Contribution for L=           2  read in
    real space projection operators read in
  non local Contribution for L=           2  read in
    real space projection operators read in
  non local Contribution for L=           0  read in
    real space projection operators read in
  non local Contribution for L=           0  read in
    real space projection operators read in
  non local Contribution for L=           1  read in
    real space projection operators read in
  non local Contribution for L=           1  read in
    real space projection operators read in
    PAW grid and wavefunctions read in
 
   number of l-projection  operators is LMAX  =           6
   number of lm-projection operators is LMMAX =          18
 
 POTCAR:    PAW_PBE Li 17Jan2003                  
   VRHFIN =Li: s1p0                                                                                 
   LEXCH  = PE                                                                                      
   EATOM  =     5.3001 eV,     .3895 Ry                                                             
                                                                                                    
   TITEL  = PAW_PBE Li 17Jan2003                                                                    
   LULTRA =        F    use ultrasoft PP ?                                                          
   IUNSCR =        1    unscreen: 0-lin 1-nonlin 2-no                                               
   RPACOR =    1.500    partial core radius                                                         
   POMASS =    7.010; ZVAL   =    1.000    mass and valenz                                          
   RCORE  =    2.050    outmost cutoff radius                                                       
   RWIGS  =    2.600; RWIGS  =    1.376    wigner-seitz radius (au A)                               
   ENMAX  =  140.000; ENMIN  =  100.000 eV                                                          
   ICORE  =        2    local potential                                                             
   LCOR   =        T    correct aug charges                                                         
   LPAW   =        T    paw PP                                                                      
   EAUG   =  331.638                                                                                
   DEXC   =    -.010                                                                                
   RMAX   =    4.263    core radius for proj-oper                                                   
   RAUG   =    1.300    factor for augmentation sphere                                              
   RDEP   =    2.094    radius for radial grids                                                     
   QCUT   =   -2.932; QGAM   =    5.865    optimization parameters                                  
                                                                                                    
   Description                                                                                      
     l     E      TYP  RCUT    TYP  RCUT                                                            
     0   .000     23  2.050                                                                         
     0  2.000     23  2.050                                                                         
     1   .000     23  2.050                                                                         
     2   .000     23  2.050                                                                         
  local pseudopotential read in
  partial core-charges read in
  atomic valenz-charges read in
  non local Contribution for L=           0  read in
    real space projection operators read in
  non local Contribution for L=           0  read in
    real space projection operators read in
  non local Contribution for L=           1  read in
    real space projection operators read in
    PAW grid and wavefunctions read in
 
   number of l-projection  operators is LMAX  =           3
   number of lm-projection operators is LMMAX =           5
 
 -----------------------------------------------------------------------------
|                                                                             |
|               ----> ADVICE to this user running VASP <----                  |
|                                                                             |
|     You have a (more or less) 'large supercell' and for larger cells it     |
|     might be more efficient to use real-space projection operators.         |
|     Therefore, try LREAL= Auto in the INCAR file.                           |
|     Mind: If you want to do very accurate calculations, keep the            |
|     reciprocal projection scheme (i.e. LREAL=.FALSE.).                      |
|                                                                             |
 -----------------------------------------------------------------------------

  PAW_PBE Cl 17Jan2003                  :
 energy of atom  1       EATOM= -409.7259
 kinetic energy error for atom=    0.0089 (will be added to EATOM!!)
 PAW_PBE Fe 06Sep2000                   :
 energy of atom  2       EATOM= -594.4687
 kinetic energy error for atom=    0.0088 (will be added to EATOM!!)
  PAW_PBE Li 17Jan2003                  :
 energy of atom  3       EATOM=   -5.3001
 kinetic energy error for atom=    0.0000 (will be added to EATOM!!)
 
 
 POSCAR: Li3FeCl6
  positions in direct lattice
  No initial velocities read in
 exchange correlation table for  LEXCH =        8
   RHO(1)=    0.500       N(1)  =     2000
   RHO(2)=  100.500       N(2)  =     4000
 


--------------------------------------------------------------------------------------------------------


 ion  position               nearest neighbor table
   1  0.158  0.994  0.129-  49 2.44  76 2.44  71 2.49  63 2.76
   2  0.006  0.164  0.129-  49 2.44  64 2.44  77 2.49  57 2.76
   3  0.836  0.842  0.129-  49 2.44  58 2.45  59 2.49  75 2.76
   4  0.842  0.006  0.871-  50 2.44  75 2.44  73 2.49  64 2.76
   5  0.994  0.836  0.871-  50 2.44  63 2.44  79 2.49  58 2.76
   6  0.164  0.158  0.871-  50 2.44  57 2.45  61 2.49  76 2.76
   7  0.164  0.006  0.629-  50 2.44  66 2.44  61 2.49  80 2.76
   8  0.994  0.158  0.629-  50 2.44  60 2.44  73 2.49  68 2.76
   9  0.842  0.836  0.629-  50 2.44  78 2.45  79 2.49  62 2.76
  10  0.836  0.994  0.371-  49 2.44  68 2.44  59 2.49  78 2.76
  11  0.006  0.842  0.371-  49 2.44  62 2.44  71 2.49  66 2.76
  12  0.158  0.164  0.371-  49 2.44  80 2.45  77 2.49  60 2.76
  13  0.158  0.494  0.129-  51 2.44  70 2.44  77 2.49  57 2.76
  14  0.006  0.664  0.129-  51 2.44  58 2.44  71 2.49  63 2.76
  15  0.836  0.342  0.129-  51 2.44  64 2.45  65 2.49  69 2.76
  16  0.842  0.506  0.871-  52 2.44  69 2.44  79 2.49  58 2.76
  17  0.994  0.336  0.871-  52 2.44  57 2.44  73 2.49  64 2.76
  18  0.164  0.658  0.871-  52 2.44  63 2.45  67 2.49  70 2.76
  19  0.164  0.506  0.629-  52 2.44  60 2.44  67 2.49  74 2.76
  20  0.994  0.658  0.629-  52 2.44  66 2.44  79 2.49  62 2.76
  21  0.842  0.336  0.629-  52 2.44  72 2.45  73 2.49  68 2.76
  22  0.836  0.494  0.371-  51 2.44  62 2.44  65 2.49  72 2.76
  23  0.006  0.342  0.371-  51 2.44  68 2.44  77 2.49  60 2.76
  24  0.158  0.664  0.371-  51 2.44  74 2.45  71 2.49  66 2.76
  25  0.658  0.994  0.129-  53 2.44  64 2.44  59 2.49  75 2.76
  26  0.506  0.164  0.129-  53 2.44  76 2.44  65 2.49  69 2.76
  27  0.336  0.842  0.129-  53 2.44  70 2.45  71 2.49  63 2.76
  28  0.342  0.006  0.871-  54 2.44  63 2.44  61 2.49  76 2.76
  29  0.494  0.836  0.871-  54 2.44  75 2.44  67 2.49  70 2.76
  30  0.664  0.158  0.871-  54 2.44  69 2.45  73 2.49  64 2.76
  31  0.664  0.006  0.629-  54 2.44  78 2.44  73 2.49  68 2.76
  32  0.494  0.158  0.629-  54 2.44  72 2.44  61 2.49  80 2.76
  33  0.342  0.836  0.629-  54 2.44  66 2.45  67 2.49  74 2.76
  34  0.336  0.994  0.371-  53 2.44  80 2.44  71 2.49  66 2.76
  35  0.506  0.842  0.371-  53 2.44  74 2.44  59 2.49  78 2.76
  36  0.658  0.164  0.371-  53 2.44  68 2.45  65 2.49  72 2.76
  37  0.658  0.494  0.129-  55 2.44  58 2.44  65 2.49  69 2.76
  38  0.506  0.664  0.129-  55 2.44  70 2.44  59 2.49  75 2.76
  39  0.336  0.342  0.129-  55 2.44  76 2.45  77 2.49  57 2.76
  40  0.342  0.506  0.871-  56 2.44  57 2.44  67 2.49  70 2.76
  41  0.494  0.336  0.871-  56 2.44  69 2.44  61 2.49  76 2.76
  42  0.664  0.658  0.871-  56 2.44  75 2.45  79 2.49  58 2.76
  43  0.664  0.506  0.629-  56 2.44  72 2.44  79 2.49  62 2.76
  44  0.494  0.658  0.629-  56 2.44  78 2.44  67 2.49  74 2.76
  45  0.342  0.336  0.629-  56 2.44  60 2.45  61 2.49  80 2.76
  46  0.336  0.494  0.371-  55 2.44  74 2.44  77 2.49  60 2.76
  47  0.506  0.342  0.371-  55 2.44  80 2.44  65 2.49  72 2.76
  48  0.658  0.664  0.371-  55 2.44  62 2.45  59 2.49  78 2.76
  49  1.000  0.000  0.250-  12 2.44   3 2.44   2 2.44  10 2.44   1 2.44  11 2.44
  50  0.000  1.000  0.750-   6 2.44   9 2.44   7 2.44   5 2.44   8 2.44   4 2.44
  51  1.000  0.500  0.250-  15 2.44  24 2.44  22 2.44  14 2.44  13 2.44  23 2.44
  52  0.000  0.500  0.750-  18 2.44  21 2.44  19 2.44  17 2.44  16 2.44  20 2.44
  53  0.500  0.000  0.250-  27 2.44  36 2.44  34 2.44  26 2.44  25 2.44  35 2.44
  54  0.500  1.000  0.750-  30 2.44  33 2.44  31 2.44  29 2.44  28 2.44  32 2.44
  55  0.500  0.500  0.250-  39 2.44  48 2.44  46 2.44  38 2.44  47 2.44  37 2.44
  56  0.500  0.500  0.750-  45 2.44  42 2.44  41 2.44  43 2.44  40 2.44  44 2.44
  57  0.167  0.333  0.968-  40 2.44  17 2.44   6 2.45   2 2.76  39 2.76  13 2.76  77 3.21
  58  0.833  0.667  0.032-  37 2.44  14 2.44   3 2.45   5 2.76  42 2.76  16 2.76  79 3.21
  59  0.667  0.833  0.250-  35 2.49  25 2.49  10 2.49  38 2.49   3 2.49  48 2.49  75 3.21  78 3.21

  60  0.167  0.333  0.532-   8 2.44  19 2.44  45 2.45  46 2.76  12 2.76  23 2.76  77 3.21
  61  0.333  0.167  0.750-  32 2.49  28 2.49   7 2.49  41 2.49   6 2.49  45 2.49  76 3.21  80 3.21

  62  0.833  0.667  0.468-  11 2.44  22 2.44  48 2.45  43 2.76   9 2.76  20 2.76  79 3.21
  63  0.167  0.833  0.968-  28 2.44   5 2.44  18 2.45  14 2.76  27 2.76   1 2.76  71 3.21
  64  0.833  0.167  0.032-  25 2.44   2 2.44  15 2.45  17 2.76  30 2.76   4 2.76  73 3.21
  65  0.667  0.333  0.250-  37 2.49  47 2.49  22 2.49  26 2.49  15 2.49  36 2.49  69 3.21  72 3.21

  66  0.167  0.833  0.532-  20 2.44   7 2.44  33 2.45  34 2.76  24 2.76  11 2.76  71 3.21
  67  0.333  0.667  0.750-  44 2.49  40 2.49  29 2.49  19 2.49  33 2.49  18 2.49  70 3.21  74 3.21

  68  0.833  0.167  0.468-  23 2.44  10 2.44  36 2.45  31 2.76  21 2.76   8 2.76  73 3.21
  69  0.667  0.333  0.968-  16 2.44  41 2.44  30 2.45  26 2.76  15 2.76  37 2.76  65 3.21
  70  0.333  0.667  0.032-  13 2.44  38 2.44  27 2.45  29 2.76  18 2.76  40 2.76  67 3.21
  71  0.167  0.833  0.250-  11 2.49   1 2.49  14 2.49  34 2.49  24 2.49  27 2.49  63 3.21  66 3.21

  72  0.667  0.333  0.532-  32 2.44  43 2.44  21 2.45  22 2.76  36 2.76  47 2.76  65 3.21
  73  0.833  0.167  0.750-   4 2.49   8 2.49  31 2.49  17 2.49  30 2.49  21 2.49  64 3.21  68 3.21

  74  0.333  0.667  0.468-  35 2.44  46 2.44  24 2.45  19 2.76  33 2.76  44 2.76  67 3.21
  75  0.667  0.833  0.968-   4 2.44  29 2.44  42 2.45  38 2.76   3 2.76  25 2.76  59 3.21
  76  0.333  0.167  0.032-   1 2.44  26 2.44  39 2.45  41 2.76   6 2.76  28 2.76  61 3.21
  77  0.167  0.333  0.250-  23 2.49  13 2.49  46 2.49   2 2.49  39 2.49  12 2.49  57 3.21  60 3.21

  78  0.667  0.833  0.532-  44 2.44  31 2.44   9 2.45  10 2.76  48 2.76  35 2.76  59 3.21
  79  0.833  0.667  0.750-  20 2.49  16 2.49  43 2.49   5 2.49  42 2.49   9 2.49  58 3.21  62 3.21

  80  0.333  0.167  0.468-  47 2.44  34 2.44  12 2.45   7 2.76  45 2.76  32 2.76  61 3.21
 
  LATTYP: Found a base centered orthorhombic cell.
 ALAT       =    12.5134231864
 B/A-ratio  =     1.7329638574
 C/A-ratio  =     0.9111292387
  
  Lattice vectors:
  
 A1 = (  12.5183705208,  -0.0028563449,   0.0000009508)
 A2 = (  -6.2616589276,  10.8397987126,   0.0000009508)
 A3 = (  -0.0000009334,  -0.0000016167,  11.4013457418)


Analysis of symmetry for initial positions (statically):
=====================================================================
 Subroutine PRICEL returns following result:
 
  LATTYP: Found a base centered orthorhombic cell.
 ALAT       =     6.2567115932
 B/A-ratio  =     1.7329638574
 C/A-ratio  =     1.8222584775
  
  Lattice vectors:
  
 A1 = (   6.2591852604,  -0.0014281724,   0.0000004754)
 A2 = (  -3.1308294638,   5.4198993563,   0.0000004754)
 A3 = (  -0.0000009334,  -0.0000016167,  11.4013457418)
 
   4 primitive cells build up your supercell.
 

 Routine SETGRP: Setting up the symmetry group for a 
 base centered orthorhombic supercell.


 Subroutine GETGRP returns: Found  4 space group operations
 (whereof  2 operations were pure point group operations)
 out of a pool of  8 trial point group operations.


The static configuration has the point symmetry S_2 .
 The point group associated with its full space group is C_2h.


Analysis of symmetry for dynamics (positions and initial velocities):
=====================================================================
 Subroutine PRICEL returns following result:
 
  LATTYP: Found a base centered orthorhombic cell.
 ALAT       =     6.2567115932
 B/A-ratio  =     1.7329638574
 C/A-ratio  =     1.8222584775
  
  Lattice vectors:
  
 A1 = (   6.2591852604,  -0.0014281724,   0.0000004754)
 A2 = (  -3.1308294638,   5.4198993563,   0.0000004754)
 A3 = (  -0.0000009334,  -0.0000016167,  11.4013457418)
 
   4 primitive cells build up your supercell.
 

 Routine SETGRP: Setting up the symmetry group for a 
 base centered orthorhombic supercell.


 Subroutine GETGRP returns: Found  4 space group operations
 (whereof  2 operations were pure point group operations)
 out of a pool of  8 trial point group operations.


The dynamic configuration has the point symmetry S_2 .
 The point group associated with its full space group is C_2h.


Analysis of structural, dynamic, and magnetic symmetry:
=====================================================================
 Subroutine PRICEL returns following result:
 
  LATTYP: Found a base centered orthorhombic cell.
 ALAT       =     6.2567115932
 B/A-ratio  =     1.7329638574
 C/A-ratio  =     1.8222584775
  
  Lattice vectors:
  
 A1 = (   6.2591852604,  -0.0014281724,   0.0000004754)
 A2 = (  -3.1308294638,   5.4198993563,   0.0000004754)
 A3 = (  -0.0000009334,  -0.0000016167,  11.4013457418)
 
   4 primitive cells build up your supercell.
 

 Routine SETGRP: Setting up the symmetry group for a 
 base centered orthorhombic supercell.


 Subroutine GETGRP returns: Found  4 space group operations
 (whereof  2 operations were pure point group operations)
 out of a pool of  8 trial point group operations.


The overall configuration has the point symmetry S_2 .
 The point group associated with its full space group is C_2h.


 Subroutine INISYM returns: Found  4 space group operations
 (whereof  2 operations are pure point group operations),
 and found     4 'primitive' translations


----------------------------------------------------------------------------------------

                                     Primitive cell                                     

  volume of cell :     386.7300

  direct lattice vectors                    reciprocal lattice vectors
     6.259185260 -0.001428172  0.000000475     0.159786263  0.092301260  0.000000026
    -3.130829464  5.419899356  0.000000475     0.000042105  0.184529593  0.000000026
    -0.000000933 -0.000001617 11.401345742    -0.000000007 -0.000000012  0.087708944

  length of vectors
     6.259185423  6.259185423 11.401345742     0.184529598  0.184529598  0.087708944

  position of ions in fractional coordinates (direct lattice)
     0.315779090  0.988340279  0.129076814
     0.011683607  0.327441425  0.129042654
     0.672459906  0.684160953  0.129123007
     0.684220910  0.011659721  0.870923186
     0.988316393  0.672558517  0.870957346
     0.327540094  0.315838989  0.870876993
     0.327441425  0.011683607  0.629042654
     0.988340279  0.315779090  0.629076814
     0.684161011  0.672459848  0.629123007
     0.672558575  0.988316393  0.370957346
     0.011659721  0.684220852  0.370923186
     0.315838989  0.327540094  0.370876993
     0.999990939  0.000009061  0.250000000
     0.000009061  0.999990939  0.750000000
     0.333284951  0.666610346  0.968373579
     0.666715049  0.333389596  0.031626421
     0.333248201  0.666751741  0.250000000
     0.333389596  0.666714991  0.531626421
     0.666751799  0.333248201  0.750000000
     0.666610404  0.333284951  0.468373579

  ion indices of the primitive-cell ions
   primitive index   ion index
                 1           1
                 2           2
                 3          27
                 4          28
                 5           5
                 6           6
                 7           7
                 8           8
                 9          33
                10          34
                11          11
                12          12
                13          49
                14          50
                15          63
                16          76
                17          71
                18          66
                19          61
                20          80

----------------------------------------------------------------------------------------

 
 
 KPOINTS: Automatic mesh                          

Automatic generation of k-mesh.
 Grid dimensions read from file:
 generate k-points for:    1    1    1

 Generating k-lattice:

  Cartesian coordinates                     Fractional coordinates (reciprocal lattice)
     0.079893131  0.046150630  0.000000013     1.000000000  0.000000000  0.000000000
     0.000021052  0.092264796  0.000000013    -0.000000000  1.000000000 -0.000000000
    -0.000000007 -0.000000012  0.087708944     0.000000000 -0.000000000  1.000000000

  Length of vectors
     0.092264799  0.092264799  0.087708944

  Shift w.r.t. Gamma in fractional coordinates (k-lattice)
     0.000000000  0.000000000  0.000000000

 
 Subroutine IBZKPT returns following result:
 ===========================================
 
 Found      1 irreducible k-points:
 
 Following reciprocal coordinates:
            Coordinates               Weight
  0.000000  0.000000  0.000000      1.000000
 
 Following cartesian coordinates:
            Coordinates               Weight
  0.000000  0.000000  0.000000      1.000000
 


--------------------------------------------------------------------------------------------------------




 Dimension of arrays:
   k-points           NKPTS =      1   k-points in BZ     NKDIM =      1   number of bands    NBANDS=    384
   number of dos      NEDOS =    301   number of ions     NIONS =     80
   non local maximal  LDIM  =      6   non local SUM 2l+1 LMDIM =     18
   total plane-waves  NPLWV = 229376
   max r-space proj   IRMAX =      1   max aug-charges    IRDMAX=   1102
   dimension x,y,z NGX =    64 NGY =   64 NGZ =   56
   dimension x,y,z NGXF=    70 NGYF=   70 NGZF=   64
   support grid    NGXF=    70 NGYF=   70 NGZF=   64
   ions per type =              48   8  24
   NGX,Y,Z   is equivalent  to a cutoff of   8.50,  8.50,  8.17 a.u.
   NGXF,Y,Z  is equivalent  to a cutoff of   9.30,  9.30,  9.33 a.u.

 SYSTEM =  "Li3FeCl6"                              
 POSCAR =  Li3FeCl6                                

 Startparameter for this run:
   NWRITE =      2    write-flag & timer
   PREC   = l         normal or accurate (medium, high low for compatibility)
   ISTART =      0    job   : 0-new  1-cont  2-samecut
   ICHARG =      2    charge: 1-file 2-atom 10-const
   ISPIN  =      2    spin polarized calculation?
   LNONCOLLINEAR =      F non collinear calculations
   LSORBIT =      F    spin-orbit coupling
   INIWAV =      1    electr: 0-lowe 1-rand  2-diag
   LASPH  =      F    aspherical Exc in radial PAW
 Electronic Relaxation 1
   ENCUT  =  400.0 eV  29.40 Ry    5.42 a.u.  20.41 20.41 18.59*2*pi/ulx,y,z
   ENINI  =  400.0     initial cutoff
   ENAUG  =  511.4 eV  augmentation charge cutoff
   NELM   =    200;   NELMIN=  6; NELMDL=-12     # of ELM steps 
   EDIFF  = 0.1E-06   stopping-criterion for ELM
   LREAL  =      F    real-space projection
   NLSPLINE    = F    spline interpolate recip. space projectors
   LCOMPAT=      F    compatible to vasp.4.4
   GGA_COMPAT  = T    GGA compatible to vasp.4.4-vasp.4.6
   LMAXPAW     = -100 max onsite density
   LMAXMIX     =    2 max onsite mixed and CHGCAR
   VOSKOWN=      0    Vosko Wilk Nusair interpolation
   ROPT   =    0.00000   0.00000   0.00000
 Ionic relaxation
   EDIFFG = -.1E-01   stopping-criterion for IOM
   NSW    =      0    number of steps for IOM
   NBLOCK =      1;   KBLOCK =      1    inner block; outer block 
   IBRION =     -1    ionic relax: 0-MD 1-quasi-New 2-CG
   NFREE  =      0    steps in history (QN), initial steepest desc. (CG)
   ISIF   =      2    stress and relaxation
   IWAVPR =     10    prediction:  0-non 1-charg 2-wave 3-comb
   ISYM   =      2    0-nonsym 1-usesym 2-fastsym
   LCORR  =      T    Harris-Foulkes like correction to forces

   POTIM  = 0.5000    time-step for ionic-motion
   TEIN   =    0.0    initial temperature
   TEBEG  =    0.0;   TEEND  =   0.0 temperature during run
   SMASS  =  -3.00    Nose mass-parameter (am)
   estimated Nose-frequenzy (Omega)   =  0.10E-29 period in steps = 0.13E+47 mass=  -0.358E-26a.u.
   SCALEE = 1.0000    scale energy and forces
   NPACO  =    256;   APACO  = 10.0  distance and # of slots for P.C.
   PSTRESS=    0.0 pullay stress

  Mass of Ions in am
   POMASS =  35.45 55.85  7.01
  Ionic Valenz
   ZVAL   =   7.00  8.00  1.00
  Atomic Wigner-Seitz radii
   RWIGS  =  -1.00 -1.00 -1.00
  virtual crystal weights 
   VCA    =   1.00  1.00  1.00
   NELECT =     424.0000    total number of electrons
   NUPDOWN=      -1.0000    fix difference up-down

 DOS related values:
   EMIN   =  10.00;   EMAX   =-10.00  energy-range for DOS
   EFERMI =   0.00;   METHOD = LEGACY      
   ISMEAR =     0;   SIGMA  =   0.20  broadening in eV -4-tet -1-fermi 0-gaus

 Electronic relaxation 2 (details)
   IALGO  =     48    algorithm
   LDIAG  =      T    sub-space diagonalisation (order eigenvalues)
   LSUBROT=      F    optimize rotation matrix (better conditioning)
   TURBO    =      0    0=normal 1=particle mesh
   IRESTART =      0    0=no restart 2=restart with 2 vectors
   NREBOOT  =      0    no. of reboots
   NMIN     =      0    reboot dimension
   EREF     =   0.00    reference energy to select bands
   IMIX   =      4    mixing-type and parameters
     AMIX     =   0.20;   BMIX     =  0.00
     AMIX_MAG =   0.80;   BMIX_MAG =  0.00
     AMIN     =   0.10
     WC   =   100.;   INIMIX=   1;  MIXPRE=   1;  MAXMIX= -45

 Intra band minimization:
   WEIMIN = 0.0000     energy-eigenvalue tresh-hold
   EBREAK =  0.65E-10  absolut break condition
   DEPER  =   0.30     relativ break condition  

   TIME   =   0.04     timestep for ELM

  volume/ion in A,a.u.               =      19.34       130.49
  Fermi-wavevector in a.u.,A,eV,Ry     =   1.063427  2.009585 15.386502  1.130876
  Thomas-Fermi vector in A             =   2.198911
 
 Write flags
   LWAVE        =      F    write WAVECAR
   LDOWNSAMPLE  =      F    k-point downsampling of WAVECAR
   LCHARG       =      T    write CHGCAR
   LVTOT        =      F    write LOCPOT, total local potential
   LVHAR        =      F    write LOCPOT, Hartree potential only
   LELF         =      F    write electronic localiz. function (ELF)
   LORBIT       =     11    0 simple, 1 ext, 2 COOP (PROOUT), +10 PAW based schemes


 Dipole corrections
   LMONO  =      F    monopole corrections only (constant potential shift)
   LDIPOL =      F    correct potential (dipole corrections)
   IDIPOL =      0    1-x, 2-y, 3-z, 4-all directions 
   EPSILON=  1.0000000 bulk dielectric constant

 Exchange correlation treatment:
   GGA     =    --    GGA type
   LEXCH   =     8    internal setting for exchange type
   LIBXC   =     F    Libxc                    
   VOSKOWN =     0    Vosko Wilk Nusair interpolation
   LHFCALC =     F    Hartree Fock is set to
   LHFONE  =     F    Hartree Fock one center treatment
   AEXX    =    0.0000 exact exchange contribution

 Linear response parameters
   LEPSILON=     F    determine dielectric tensor
   LRPA    =     F    only Hartree local field effects (RPA)
   LNABLA  =     F    use nabla operator in PAW spheres
   LVEL    =     F    velocity operator in full k-point grid
   CSHIFT  =0.1000    complex shift for real part using Kramers Kronig
   OMEGAMAX=  -1.0    maximum frequency
   DEG_THRESHOLD= 0.2000000E-02 threshold for treating states as degnerate
   RTIME   =   -0.100 relaxation time in fs
  (WPLASMAI=    0.000 imaginary part of plasma frequency in eV, 0.658/RTIME)
   DFIELD  = 0.0000000 0.0000000 0.0000000 field for delta impulse in time
 
  Optional k-point grid parameters
   LKPOINTS_OPT  =     F    use optional k-point grid
   KPOINTS_OPT_MODE=     1    mode for optional k-point grid
 
 Orbital magnetization related:
   ORBITALMAG=     F  switch on orbital magnetization
   LCHIMAG   =     F  perturbation theory with respect to B field
   DQ        =  0.001000  dq finite difference perturbation B field
   LLRAUG    =     F  two centre corrections for induced B field
   LBONE     =     F  B-component reconstruction in AE one-centre
   LVGVCALC  =     T  calculate vGv susceptibility
   LVGVAPPL  =     F  apply vGv susceptibility instead of pGv for G=0

 Random number generation:
   RANDOM_GENERATOR = DEFAULT
   PCG_SEED         = not used


--------------------------------------------------------------------------------------------------------


 Static calculation
 charge density and potential will be updated during run
 spin polarized calculation
 RMM-DIIS sequential band-by-band
 perform sub-space diagonalisation
    before iterative eigenvector-optimisation
 modified Broyden-mixing scheme, WC =      100.0
 initial mixing is a Kerker type mixing with AMIX =  0.2000 and BMIX =      0.0000
 Hartree-type preconditioning will be used
 using additional bands          172
 reciprocal scheme for non local part
 use partial core corrections
 calculate Harris-corrections to forces 
   (improved forces if not selfconsistent)
 use gradient corrections 
 use of overlap-Matrix (Vanderbilt PP)
 Gauss-broadening in eV      SIGMA  =   0.20


--------------------------------------------------------------------------------------------------------


  energy-cutoff  :      400.00
  volume of cell :     1546.92
      direct lattice vectors                 reciprocal lattice vectors
    12.518370521 -0.002856345  0.000000951     0.079893131  0.046150630  0.000000013
    -6.261658928 10.839798713  0.000000951     0.000021052  0.092264796  0.000000013
    -0.000000933 -0.000001617 11.401345742    -0.000000007 -0.000000012  0.087708944

  length of vectors
    12.518370847 12.518370847 11.401345742     0.092264799  0.092264799  0.087708944


 
 k-points in units of 2pi/SCALE and weight: Automatic mesh                          
   0.00000000  0.00000000  0.00000000       1.000
 
 k-points in reciprocal lattice and weights: Automatic mesh                          
   0.00000000  0.00000000  0.00000000       1.000
 
 position of ions in fractional coordinates (direct lattice) 
   0.15788954  0.99417014  0.12907681
   0.00584180  0.16372071  0.12904265
   0.83622992  0.84208048  0.12912301
   0.84211043  0.00582986  0.87092319
   0.99415820  0.83627926  0.87095735
   0.16377005  0.15791949  0.87087699
   0.16372071  0.00584180  0.62904265
   0.99417014  0.15788954  0.62907681
   0.84208048  0.83622992  0.62912301
   0.83627926  0.99415820  0.37095735
   0.00582986  0.84211043  0.37092319
   0.15791949  0.16377005  0.37087699
   0.15788954  0.49417014  0.12907681
   0.00584180  0.66372074  0.12904265
   0.83622992  0.34208051  0.12912301
   0.84211043  0.50582986  0.87092319
   0.99415820  0.33627929  0.87095735
   0.16377005  0.65791952  0.87087699
   0.16372071  0.50584180  0.62904265
   0.99417014  0.65788957  0.62907681
   0.84208048  0.33622995  0.62912301
   0.83627926  0.49415820  0.37095735
   0.00582986  0.34211046  0.37092319
   0.15791949  0.66377008  0.37087699
   0.65788957  0.99417014  0.12907681
   0.50584180  0.16372071  0.12904265
   0.33622995  0.84208048  0.12912301
   0.34211046  0.00582986  0.87092319
   0.49415820  0.83627926  0.87095735
   0.66377008  0.15791949  0.87087699
   0.66372074  0.00584180  0.62904265
   0.49417014  0.15788954  0.62907681
   0.34208051  0.83622992  0.62912301
   0.33627929  0.99415820  0.37095735
   0.50582986  0.84211043  0.37092319
   0.65791952  0.16377005  0.37087699
   0.65788957  0.49417014  0.12907681
   0.50584180  0.66372074  0.12904265
   0.33622995  0.34208051  0.12912301
   0.34211046  0.50582986  0.87092319
   0.49415820  0.33627929  0.87095735
   0.66377008  0.65791952  0.87087699
   0.66372074  0.50584180  0.62904265
   0.49417014  0.65788957  0.62907681
   0.34208051  0.33622995  0.62912301
   0.33627929  0.49415820  0.37095735
   0.50582986  0.34211046  0.37092319
   0.65791952  0.66377008  0.37087699
   0.99999547  0.00000453  0.25000000
   0.00000453  0.99999547  0.75000000
   0.99999547  0.50000453  0.25000000
   0.00000453  0.49999547  0.75000000
   0.49999547  0.00000453  0.25000000
   0.50000453  0.99999547  0.75000000
   0.49999547  0.50000453  0.25000000
   0.50000453  0.49999547  0.75000000
   0.16664248  0.33330520  0.96837358
   0.83335750  0.66669483  0.03162642
   0.66662413  0.83337587  0.25000000
   0.16669480  0.33335752  0.53162642
   0.33337590  0.16662410  0.75000000
   0.83330517  0.66664250  0.46837358
   0.16664248  0.83330517  0.96837358
   0.83335750  0.16669480  0.03162642
   0.66662413  0.33337590  0.25000000
   0.16669480  0.83335750  0.53162642
   0.33337590  0.66662413  0.75000000
   0.83330517  0.16664248  0.46837358
   0.66664250  0.33330520  0.96837358
   0.33335752  0.66669483  0.03162642
   0.16662410  0.83337587  0.25000000
   0.66669483  0.33335752  0.53162642
   0.83337587  0.16662410  0.75000000
   0.33330520  0.66664250  0.46837358
   0.66664250  0.83330517  0.96837358
   0.33335752  0.16669480  0.03162642
   0.16662410  0.33337590  0.25000000
   0.66669483  0.83335750  0.53162642
   0.83337587  0.66662413  0.75000000
   0.33330520  0.16664248  0.46837358
 
 position of ions in cartesian coordinates  (Angst):
  -4.24863462 10.77615300  1.47165048
  -0.95203352  1.77468268  1.47126008
   5.19541518  9.12559409  1.47217764
  10.50534492  0.06078775  9.92969717
   7.20874436  9.06225776  9.93008756
   1.06129530  1.71134634  9.92917000
   2.01293657  0.06285532  7.17193295
  11.45673910  1.70865018  7.17232335
   5.30528826  9.06215776  7.17285051
   4.24377372 10.77408543  4.22941469
  -5.20002826  9.12829026  4.22902429
   0.95142222  1.77478267  4.22849713
  -1.11780516  5.35625364  1.47165000
  -4.08286316  7.19458235  1.47126055
   8.32624446  3.70569505  1.47217717
   7.37451546  5.48068711  9.92969764
  10.33957364  3.64235872  9.93008709
  -2.06953434  7.13124601  9.92917047
  -1.11789289  5.48275467  7.17193343
   8.32590945  7.12854985  7.17232382
   8.43611754  3.64225872  7.17285004
   7.37460319  5.35418608  4.22941422
  -2.06919897  3.70839122  4.22902382
  -2.17940742  7.19468234  4.22849760
   2.01055100 10.77472483  1.47165095
   5.30715174  1.77325450  1.47126055
  -1.06376972  9.12702227  1.47217717
   4.24616002  0.06221592  9.92969669
   0.94955910  9.06368593  9.93008709
   7.32048093  1.70991817  9.92917047
   8.27212220  0.06142714  7.17193343
   5.19755384  1.71007835  7.17232287
  -0.95389664  9.06358594  7.17285004
  -2.01541117 10.77551361  4.22941422
   1.05915700  9.12686209  4.22902477
   7.21060785  1.77335450  4.22849760
   5.14138046  5.35482547  1.47165048
   2.17632210  7.19315417  1.47126103
   2.06705956  3.70712322  1.47217669
   1.11533056  5.48211528  9.92969717
   4.08038838  3.64378689  9.93008661
   4.18965128  7.12981784  9.92917095
   5.14129273  5.48132650  7.17193390
   2.06672419  7.12997802  7.17232335
   2.17693264  3.64368689  7.17284956
   1.11541829  5.35561425  4.22941374
   4.18998629  3.70696305  4.22902429
   4.07977820  7.19325417  4.22849808
  12.51828520 -0.00280763  2.85033739
  -6.26157454 10.83974838  8.55101026
   9.38745574  5.41709173  2.85033786
  -3.13074508  5.41984902  8.55100978
   6.25909994 -0.00137945  2.85033691
  -0.00238928 10.83832020  8.55101073
   3.12827048  5.41851990  2.85033739
   3.12844018  5.41842085  8.55101026
  -0.00095214  3.61248375 11.04076245
   6.25766226  7.22445732  0.36058519
   3.12673215  9.03172218  2.85033786
  -0.00062437  3.61305147  6.06125711
   3.12997905  1.80521826  8.55100978
   6.25733448  7.22388960  5.34009053
  -3.13178143  9.03238279 11.04076293
   9.38849190  1.80455765  0.36058471
   6.25756144  3.61182314  2.85033739
  -3.13145365  9.03295051  6.06125758
  -0.00085060  7.22511793  8.55101026
   9.38816413  1.80398993  5.34009006
   6.25823348  3.61105557 11.04076293
  -0.00152264  7.22588549  0.36058471
  -3.13245347  9.03315035  2.85033739
   6.25856125  3.61162329  6.06125758
   9.38916395  1.80379009  8.55101026
  -0.00185041  7.22531777  5.34009006
   3.12740420  9.03095461 11.04076340
   3.12930701  1.80598582  0.36058424
  -0.00162419  3.61325131  2.85033691
   3.12773197  9.03152234  6.06125806
   6.25833430  7.22368976  8.55101073
   3.12897923  1.80541810  5.34008958
 


--------------------------------------------------------------------------------------------------------


 k-point   1 :   0.0000 0.0000 0.0000  plane waves:   28159

 maximum and minimum number of plane-waves per node :     28159    28159

 maximum number of plane-waves:     28159
 maximum index in each direction: 
   IXMAX=   20   IYMAX=   20   IZMAX=   18
   IXMIN=  -20   IYMIN=  -20   IZMIN=  -18


 serial   3D FFT for wavefunctions
 parallel 3D FFT for charge:
    minimum data exchange during FFTs selected (reduces bandwidth)


 total amount of memory used by VASP MPI-rank0   103508. kBytes
=======================================================================

   base      :      30000. kBytes
   nonl-proj :      48209. kBytes
   fftplans  :       1149. kBytes
   grid      :      18885. kBytes
   one-center:       2488. kBytes
   wavefun   :       2777. kBytes
 
     INWAV:  cpu time      0.0000: real time      0.0002
 Broyden mixing: mesh for mixing (old mesh)
   NGX = 41   NGY = 41   NGZ = 37
  (NGX  = 70   NGY  = 70   NGZ  = 64)
  gives a total of  62197 points

 initial charge density was supplied:
 charge density of overlapping atoms calculated
 number of electron     424.0000000 magnetization      32.0000000
 keeping initial charge density in first step


--------------------------------------------------------------------------------------------------------


 Maximum index for augmentation-charges          101 (set IRDMAX)


--------------------------------------------------------------------------------------------------------


 First call to EWALD:  gamma=   0.153
 Maximum number of real-space cells 3x 3x 3
 Maximum number of reciprocal cells 3x 3x 3

    FEWALD:  cpu time      0.0035: real time      0.0035


--------------------------------------- Ionic step        1  -------------------------------------------




--------------------------------------- Iteration      1(   1)  ---------------------------------------


    POTLOK:  cpu time      0.2112: real time      0.2149
    SETDIJ:  cpu time      0.0092: real time      0.0093
    EDDIAG:  cpu time      0.5730: real time      0.5785
  RMM-DIIS:  cpu time      0.6861: real time      0.6936
    ORTHCH:  cpu time      0.2124: real time      0.2134
       DOS:  cpu time      0.0045: real time      0.0047
    --------------------------------------------
      LOOP:  cpu time      1.6965: real time      1.7145

 eigenvalue-minimisations  :   768
 total energy-change (2. order) : 0.3399660E+04  (-0.1026465E+05)
 number of electron     424.0000000 magnetization      32.0000000
 augmentation part      424.0000000 magnetization      32.0000000

 Free energy of the ion-electron system (eV)
  ---------------------------------------------------
  alpha Z        PSCENC =       603.54932813
  Ewald energy   TEWEN  =    -19119.23326041
  -Hartree energ DENC   =     -5764.08476392
  -exchange      EXHF   =         0.00000000
  -V(xc)+E(xc)   XCENC  =       907.56120042
  PAW double counting   =     13478.67288236   -13412.22694235
  entropy T*S    EENTRO =        -0.66759199
  eigenvalues    EBANDS =      2156.79331524
  atomic energy  EATOM  =     24549.29580527
  Solvation  Ediel_sol  =         0.00000000
  ---------------------------------------------------
  free energy    TOTEN  =      3399.65997275 eV

  energy without entropy =     3400.32756475  energy(sigma->0) =     3399.99376875


--------------------------------------------------------------------------------------------------------




--------------------------------------- Iteration      1(   2)  ---------------------------------------


    EDDIAG:  cpu time      0.5662: real time      0.5709
  RMM-DIIS:  cpu time      0.6891: real time      0.6962
    ORTHCH:  cpu time      0.2224: real time      0.2237
       DOS:  cpu time      0.0038: real time      0.0038
    --------------------------------------------
      LOOP:  cpu time      1.4815: real time      1.4946

 eigenvalue-minimisations  :   768
 total energy-change (2. order) :-0.2544601E+04  (-0.2509699E+04)
 number of electron     424.0000000 magnetization      32.0000000
 augmentation part      424.0000000 magnetization      32.0000000

 Free energy of the ion-electron system (eV)
  ---------------------------------------------------
  alpha Z        PSCENC =       603.54932813
  Ewald energy   TEWEN  =    -19119.23326041
  -Hartree energ DENC   =     -5764.08476392
  -exchange      EXHF   =         0.00000000
  -V(xc)+E(xc)   XCENC  =       907.56120042
  PAW double counting   =     13478.67288236   -13412.22694235
  entropy T*S    EENTRO =        -0.65295019
  eigenvalues    EBANDS =      -387.82243282
  atomic energy  EATOM  =     24549.29580527
  Solvation  Ediel_sol  =         0.00000000
  ---------------------------------------------------
  free energy    TOTEN  =       855.05886650 eV

  energy without entropy =      855.71181669  energy(sigma->0) =      855.38534159


--------------------------------------------------------------------------------------------------------




--------------------------------------- Iteration      1(   3)  ---------------------------------------


    EDDIAG:  cpu time      0.5543: real time      0.5682
  RMM-DIIS:  cpu time      0.6887: real time      0.6960
    ORTHCH:  cpu time      0.2109: real time      0.2119
       DOS:  cpu time      0.0038: real time      0.0038
    --------------------------------------------
      LOOP:  cpu time      1.4577: real time      1.4799

 eigenvalue-minimisations  :   768
 total energy-change (2. order) :-0.8052984E+03  (-0.6796526E+03)
 number of electron     424.0000000 magnetization      32.0000000
 augmentation part      424.0000000 magnetization      32.0000000

 Free energy of the ion-electron system (eV)
  ---------------------------------------------------
  alpha Z        PSCENC =       603.54932813
  Ewald energy   TEWEN  =    -19119.23326041
  -Hartree energ DENC   =     -5764.08476392
  -exchange      EXHF   =         0.00000000
  -V(xc)+E(xc)   XCENC  =       907.56120042
  PAW double counting   =     13478.67288236   -13412.22694235
  entropy T*S    EENTRO =        -0.68715461
  eigenvalues    EBANDS =     -1193.08666088
  atomic energy  EATOM  =     24549.29580527
  Solvation  Ediel_sol  =         0.00000000
  ---------------------------------------------------
  free energy    TOTEN  =        49.76043402 eV

  energy without entropy =       50.44758863  energy(sigma->0) =       50.10401132


--------------------------------------------------------------------------------------------------------




--------------------------------------- Iteration      1(   4)  ---------------------------------------


    EDDIAG:  cpu time      0.5310: real time      0.5367
  RMM-DIIS:  cpu time      0.6823: real time      0.6903
    ORTHCH:  cpu time      0.2476: real time      0.2491
       DOS:  cpu time      0.0027: real time      0.0027
    --------------------------------------------
      LOOP:  cpu time      1.4636: real time      1.4787

 eigenvalue-minimisations  :   768
 total energy-change (2. order) :-0.2826177E+03  (-0.1896881E+03)
 number of electron     424.0000000 magnetization      32.0000000
 augmentation part      424.0000000 magnetization      32.0000000

 Free energy of the ion-electron system (eV)
  ---------------------------------------------------
  alpha Z        PSCENC =       603.54932813
  Ewald energy   TEWEN  =    -19119.23326041
  -Hartree energ DENC   =     -5764.08476392
  -exchange      EXHF   =         0.00000000
  -V(xc)+E(xc)   XCENC  =       907.56120042
  PAW double counting   =     13478.67288236   -13412.22694235
  entropy T*S    EENTRO =        -0.00000132
  eigenvalues    EBANDS =     -1476.39148061
  atomic energy  EATOM  =     24549.29580527
  Solvation  Ediel_sol  =         0.00000000
  ---------------------------------------------------
  free energy    TOTEN  =      -232.85723243 eV

  energy without entropy =     -232.85723110  energy(sigma->0) =     -232.85723176


--------------------------------------------------------------------------------------------------------




--------------------------------------- Iteration      1(   5)  ---------------------------------------


    EDDIAG:  cpu time      0.4764: real time      0.4792
  RMM-DIIS:  cpu time      0.6899: real time      0.6981
    ORTHCH:  cpu time      0.1564: real time      0.1572
       DOS:  cpu time      0.0022: real time      0.0022
    --------------------------------------------
      LOOP:  cpu time      1.3248: real time      1.3367

 eigenvalue-minimisations  :   768
 total energy-change (2. order) :-0.7300045E+02  (-0.6190340E+02)
 number of electron     424.0000000 magnetization      32.0000000
 augmentation part      424.0000000 magnetization      32.0000000

 Free energy of the ion-electron system (eV)
  ---------------------------------------------------
  alpha Z        PSCENC =       603.54932813
  Ewald energy   TEWEN  =    -19119.23326041
  -Hartree energ DENC   =     -5764.08476392
  -exchange      EXHF   =         0.00000000
  -V(xc)+E(xc)   XCENC  =       907.56120042
  PAW double counting   =     13478.67288236   -13412.22694235
  entropy T*S    EENTRO =        -0.00000076
  eigenvalues    EBANDS =     -1549.39192908
  atomic energy  EATOM  =     24549.29580527
  Solvation  Ediel_sol  =         0.00000000
  ---------------------------------------------------
  free energy    TOTEN  =      -305.85768034 eV

  energy without entropy =     -305.85767957  energy(sigma->0) =     -305.85767995


--------------------------------------------------------------------------------------------------------




--------------------------------------- Iteration      1(   6)  ---------------------------------------


    EDDIAG:  cpu time      0.4807: real time      0.4835
  RMM-DIIS:  cpu time      0.6888: real time      0.6957
    ORTHCH:  cpu time      0.1560: real time      0.1569
       DOS:  cpu time      0.0025: real time      0.0025
    --------------------------------------------
      LOOP:  cpu time      1.3279: real time      1.3387

 eigenvalue-minimisations  :   768
 total energy-change (2. order) :-0.2954995E+02  (-0.2217232E+02)
 number of electron     424.0000000 magnetization      32.0000000
 augmentation part      424.0000000 magnetization      32.0000000

 Free energy of the ion-electron system (eV)
  ---------------------------------------------------
  alpha Z        PSCENC =       603.54932813
  Ewald energy   TEWEN  =    -19119.23326041
  -Hartree energ DENC   =     -5764.08476392
  -exchange      EXHF   =         0.00000000
  -V(xc)+E(xc)   XCENC  =       907.56120042
  PAW double counting   =     13478.67288236   -13412.22694235
  entropy T*S    EENTRO =        -0.00000064
  eigenvalues    EBANDS =     -1578.94187479
  atomic energy  EATOM  =     24549.29580527
  Solvation  Ediel_sol  =         0.00000000
  ---------------------------------------------------
  free energy    TOTEN  =      -335.40762592 eV

  energy without entropy =     -335.40762528  energy(sigma->0) =     -335.40762560


--------------------------------------------------------------------------------------------------------




--------------------------------------- Iteration      1(   7)  ---------------------------------------


    EDDIAG:  cpu time      0.4507: real time      0.4549
  RMM-DIIS:  cpu time      0.6870: real time      0.6980
    ORTHCH:  cpu time      0.1946: real time      0.1955
       DOS:  cpu time      0.0021: real time      0.0021
    --------------------------------------------
      LOOP:  cpu time      1.3344: real time      1.3506

 eigenvalue-minimisations  :   768
 total energy-change (2. order) :-0.1236202E+02  (-0.1014859E+02)
 number of electron     424.0000000 magnetization      32.0000000
 augmentation part      424.0000000 magnetization      32.0000000

 Free energy of the ion-electron system (eV)
  ---------------------------------------------------
  alpha Z        PSCENC =       603.54932813
  Ewald energy   TEWEN  =    -19119.23326041
  -Hartree energ DENC   =     -5764.08476392
  -exchange      EXHF   =         0.00000000
  -V(xc)+E(xc)   XCENC  =       907.56120042
  PAW double counting   =     13478.67288236   -13412.22694235
  entropy T*S    EENTRO =        -0.00000051
  eigenvalues    EBANDS =     -1591.30389567
  atomic energy  EATOM  =     24549.29580527
  Solvation  Ediel_sol  =         0.00000000
  ---------------------------------------------------
  free energy    TOTEN  =      -347.76964667 eV

  energy without entropy =     -347.76964617  energy(sigma->0) =     -347.76964642


--------------------------------------------------------------------------------------------------------




--------------------------------------- Iteration      1(   8)  ---------------------------------------


    EDDIAG:  cpu time      0.4728: real time      0.4755
  RMM-DIIS:  cpu time      0.6902: real time      0.6990
    ORTHCH:  cpu time      0.1590: real time      0.1598
       DOS:  cpu time      0.0022: real time      0.0022
    --------------------------------------------
      LOOP:  cpu time      1.3242: real time      1.3365

 eigenvalue-minimisations  :   768
 total energy-change (2. order) :-0.4927635E+01  (-0.3913067E+01)
 number of electron     424.0000000 magnetization      32.0000000
 augmentation part      424.0000000 magnetization      32.0000000

 Free energy of the ion-electron system (eV)
  ---------------------------------------------------
  alpha Z        PSCENC =       603.54932813
  Ewald energy   TEWEN  =    -19119.23326041
  -Hartree energ DENC   =     -5764.08476392
  -exchange      EXHF   =         0.00000000
  -V(xc)+E(xc)   XCENC  =       907.56120042
  PAW double counting   =     13478.67288236   -13412.22694235
  entropy T*S    EENTRO =        -0.00000048
  eigenvalues    EBANDS =     -1596.23153032
  atomic energy  EATOM  =     24549.29580527
  Solvation  Ediel_sol  =         0.00000000
  ---------------------------------------------------
  free energy    TOTEN  =      -352.69728129 eV

  energy without entropy =     -352.69728081  energy(sigma->0) =     -352.69728105


--------------------------------------------------------------------------------------------------------




--------------------------------------- Iteration      1(   9)  ---------------------------------------


    EDDIAG:  cpu time      0.4554: real time      0.4602
  RMM-DIIS:  cpu time      2.3250: real time      2.3513
    ORTHCH:  cpu time      0.1601: real time      0.1609
       DOS:  cpu time      0.0022: real time      0.0022
    --------------------------------------------
      LOOP:  cpu time      2.9427: real time      2.9746

 eigenvalue-minimisations  :  2567
 total energy-change (2. order) :-0.3957033E+01  (-0.3573616E+01)
 number of electron     424.0000000 magnetization      32.0000000
 augmentation part      424.0000000 magnetization      32.0000000

 Free energy of the ion-electron system (eV)
  ---------------------------------------------------
  alpha Z        PSCENC =       603.54932813
  Ewald energy   TEWEN  =    -19119.23326041
  -Hartree energ DENC   =     -5764.08476392
  -exchange      EXHF   =         0.00000000
  -V(xc)+E(xc)   XCENC  =       907.56120042
  PAW double counting   =     13478.67288236   -13412.22694235
  entropy T*S    EENTRO =        -0.00000046
  eigenvalues    EBANDS =     -1600.18856377
  atomic energy  EATOM  =     24549.29580527
  Solvation  Ediel_sol  =         0.00000000
  ---------------------------------------------------
  free energy    TOTEN  =      -356.65431473 eV

  energy without entropy =     -356.65431427  energy(sigma->0) =     -356.65431450


--------------------------------------------------------------------------------------------------------




--------------------------------------- Iteration      1(  10)  ---------------------------------------


    EDDIAG:  cpu time      0.4497: real time      0.4545
  RMM-DIIS:  cpu time      2.3225: real time      2.3485
    ORTHCH:  cpu time      0.1348: real time      0.1541
       DOS:  cpu time      0.0020: real time      0.0020
    --------------------------------------------
      LOOP:  cpu time      2.9090: real time      2.9591

 eigenvalue-minimisations  :  2533
 total energy-change (2. order) :-0.1127556E+00  (-0.8192931E-01)
 number of electron     424.0000000 magnetization      32.0000000
 augmentation part      424.0000000 magnetization      32.0000000

 Free energy of the ion-electron system (eV)
  ---------------------------------------------------
  alpha Z        PSCENC =       603.54932813
  Ewald energy   TEWEN  =    -19119.23326041
  -Hartree energ DENC   =     -5764.08476392
  -exchange      EXHF   =         0.00000000
  -V(xc)+E(xc)   XCENC  =       907.56120042
  PAW double counting   =     13478.67288236   -13412.22694235
  entropy T*S    EENTRO =        -0.00000048
  eigenvalues    EBANDS =     -1600.30131935
  atomic energy  EATOM  =     24549.29580527
  Solvation  Ediel_sol  =         0.00000000
  ---------------------------------------------------
  free energy    TOTEN  =      -356.76707033 eV

  energy without entropy =     -356.76706985  energy(sigma->0) =     -356.76707009


--------------------------------------------------------------------------------------------------------




--------------------------------------- Iteration      1(  11)  ---------------------------------------


    EDDIAG:  cpu time      0.4140: real time      0.4483
  RMM-DIIS:  cpu time      2.3809: real time      2.4095
    ORTHCH:  cpu time      0.1357: real time      0.1548
       DOS:  cpu time      0.0025: real time      0.0026
    --------------------------------------------
      LOOP:  cpu time      2.9330: real time      3.0151

 eigenvalue-minimisations  :  2598
 total energy-change (2. order) :-0.7394043E-02  (-0.7158711E-02)
 number of electron     424.0000000 magnetization      32.0000000
 augmentation part      424.0000000 magnetization      32.0000000

 Free energy of the ion-electron system (eV)
  ---------------------------------------------------
  alpha Z        PSCENC =       603.54932813
  Ewald energy   TEWEN  =    -19119.23326041
  -Hartree energ DENC   =     -5764.08476392
  -exchange      EXHF   =         0.00000000
  -V(xc)+E(xc)   XCENC  =       907.56120042
  PAW double counting   =     13478.67288236   -13412.22694235
  entropy T*S    EENTRO =        -0.00000048
  eigenvalues    EBANDS =     -1600.30871340
  atomic energy  EATOM  =     24549.29580527
  Solvation  Ediel_sol  =         0.00000000
  ---------------------------------------------------
  free energy    TOTEN  =      -356.77446437 eV

  energy without entropy =     -356.77446389  energy(sigma->0) =     -356.77446413


--------------------------------------------------------------------------------------------------------




--------------------------------------- Iteration      1(  12)  ---------------------------------------


    EDDIAG:  cpu time      0.4189: real time      0.4535
  RMM-DIIS:  cpu time      2.3456: real time      2.3692
    ORTHCH:  cpu time      0.1503: real time      0.1693
       DOS:  cpu time      0.0022: real time      0.0022
    CHARGE:  cpu time      0.1303: real time      0.1335
    MIXING:  cpu time      0.0025: real time      0.0028
    --------------------------------------------
      LOOP:  cpu time      3.0498: real time      3.1306

 eigenvalue-minimisations  :  2490
 total energy-change (2. order) :-0.5574742E-03  (-0.5408851E-03)
 number of electron     423.9997040 magnetization      38.3996082
 augmentation part      -20.9263674 magnetization      23.1076927

 Broyden mixing:
  rms(total) = 0.44058E+01    rms(broyden)= 0.44056E+01
  rms(prec ) = 0.58264E+01
  weight for this iteration     100.00

 Free energy of the ion-electron system (eV)
  ---------------------------------------------------
  alpha Z        PSCENC =       603.54932813
  Ewald energy   TEWEN  =    -19119.23326041
  -Hartree energ DENC   =     -5764.08476392
  -exchange      EXHF   =         0.00000000
  -V(xc)+E(xc)   XCENC  =       907.56120042
  PAW double counting   =     13478.67288236   -13412.22694235
  entropy T*S    EENTRO =        -0.00000048
  eigenvalues    EBANDS =     -1600.30927087
  atomic energy  EATOM  =     24549.29580527
  Solvation  Ediel_sol  =         0.00000000
  ---------------------------------------------------
  free energy    TOTEN  =      -356.77502184 eV

  energy without entropy =     -356.77502137  energy(sigma->0) =     -356.77502160


--------------------------------------------------------------------------------------------------------




--------------------------------------- Iteration      1(  13)  ---------------------------------------


    POTLOK:  cpu time      0.1168: real time      0.1297
    SETDIJ:  cpu time      0.0093: real time      0.0095
    EDDIAG:  cpu time      0.4126: real time      0.4470
  RMM-DIIS:  cpu time      2.6090: real time      2.6395
    ORTHCH:  cpu time      0.1351: real time      0.1546
       DOS:  cpu time      0.0029: real time      0.0030
    CHARGE:  cpu time      0.1305: real time      0.1335
    MIXING:  cpu time      0.0015: real time      0.0016
    --------------------------------------------
      LOOP:  cpu time      3.4177: real time      3.5183

 eigenvalue-minimisations  :  2801
 total energy-change (2. order) : 0.4978497E+02  (-0.1091763E+02)
 number of electron     423.9995849 magnetization      39.8472338
 augmentation part      -13.4301542 magnetization      24.8132175

 Broyden mixing:
  rms(total) = 0.11802E+01    rms(broyden)= 0.11798E+01
  rms(prec ) = 0.14096E+01
  weight for this iteration     100.00

 eigenvalues of (default mixing * dielectric matrix)
  average eigenvalue GAMMA=   1.1770
  1.1770

 Free energy of the ion-electron system (eV)
  ---------------------------------------------------
  alpha Z        PSCENC =       603.54932813
  Ewald energy   TEWEN  =    -19119.23326041
  -Hartree energ DENC   =     -5606.07915217
  -exchange      EXHF   =         0.00000000
  -V(xc)+E(xc)   XCENC  =       920.60590457
  PAW double counting   =     13470.20844175   -13388.10158024
  entropy T*S    EENTRO =        -0.01556460
  eigenvalues    EBANDS =     -1737.21997317
  atomic energy  EATOM  =     24549.29580527
  Solvation  Ediel_sol  =         0.00000000
  ---------------------------------------------------
  free energy    TOTEN  =      -306.99005088 eV

  energy without entropy =     -306.97448628  energy(sigma->0) =     -306.98226858


--------------------------------------------------------------------------------------------------------




--------------------------------------- Iteration      1(  14)  ---------------------------------------


    POTLOK:  cpu time      0.1179: real time      0.1306
    SETDIJ:  cpu time      0.0078: real time      0.0079
    EDDIAG:  cpu time      0.4112: real time      0.4452
  RMM-DIIS:  cpu time      2.2177: real time      2.2419
    ORTHCH:  cpu time      0.1348: real time      0.1543
       DOS:  cpu time      0.0033: real time      0.0033
    CHARGE:  cpu time      0.1257: real time      0.1287
    MIXING:  cpu time      0.0018: real time      0.0018
    --------------------------------------------
      LOOP:  cpu time      3.0202: real time      3.1137

 eigenvalue-minimisations  :  2284
 total energy-change (2. order) :-0.1565246E-01  (-0.5275472E+00)
 number of electron     423.9995351 magnetization      39.1168138
 augmentation part      -10.5679785 magnetization      22.5815082

 Broyden mixing:
  rms(total) = 0.10644E+01    rms(broyden)= 0.10644E+01
  rms(prec ) = 0.12519E+01
  weight for this iteration     100.00

 eigenvalues of (default mixing * dielectric matrix)
  average eigenvalue GAMMA=   1.0437
  1.0437  1.0437

 Free energy of the ion-electron system (eV)
  ---------------------------------------------------
  alpha Z        PSCENC =       603.54932813
  Ewald energy   TEWEN  =    -19119.23326041
  -Hartree energ DENC   =     -5617.80959114
  -exchange      EXHF   =         0.00000000
  -V(xc)+E(xc)   XCENC  =       926.49800956
  PAW double counting   =     13605.25904837   -13530.96753761
  entropy T*S    EENTRO =        -0.28231538
  eigenvalues    EBANDS =     -1723.31519012
  atomic energy  EATOM  =     24549.29580527
  Solvation  Ediel_sol  =         0.00000000
  ---------------------------------------------------
  free energy    TOTEN  =      -307.00570334 eV

  energy without entropy =     -306.72338796  energy(sigma->0) =     -306.86454565


--------------------------------------------------------------------------------------------------------




--------------------------------------- Iteration      1(  15)  ---------------------------------------


    POTLOK:  cpu time      0.1162: real time      0.1287
    SETDIJ:  cpu time      0.0075: real time      0.0076
    EDDIAG:  cpu time      0.5432: real time      0.5777
  RMM-DIIS:  cpu time      2.1361: real time      2.1569
    ORTHCH:  cpu time      0.1357: real time      0.1549
       DOS:  cpu time      0.0027: real time      0.0027
    CHARGE:  cpu time      0.1260: real time      0.1292
    MIXING:  cpu time      0.0017: real time      0.0017
    --------------------------------------------
      LOOP:  cpu time      3.0691: real time      3.1595

 eigenvalue-minimisations  :  2185
 total energy-change (2. order) :-0.1345867E+00  (-0.3107604E+00)
 number of electron     423.9995940 magnetization      39.7649362
 augmentation part      -13.7372066 magnetization      24.7713516

 Broyden mixing:
  rms(total) = 0.10830E+01    rms(broyden)= 0.10830E+01
  rms(prec ) = 0.13228E+01
  weight for this iteration     100.00

 eigenvalues of (default mixing * dielectric matrix)
  average eigenvalue GAMMA=   1.0573
  1.6628  0.7778  0.7313

 Free energy of the ion-electron system (eV)
  ---------------------------------------------------
  alpha Z        PSCENC =       603.54932813
  Ewald energy   TEWEN  =    -19119.23326041
  -Hartree energ DENC   =     -5668.72547222
  -exchange      EXHF   =         0.00000000
  -V(xc)+E(xc)   XCENC  =       923.73190006
  PAW double counting   =     13719.46052852   -13654.43026284
  entropy T*S    EENTRO =        -0.00213216
  eigenvalues    EBANDS =     -1660.78672438
  atomic energy  EATOM  =     24549.29580527
  Solvation  Ediel_sol  =         0.00000000
  ---------------------------------------------------
  free energy    TOTEN  =      -307.14029003 eV

  energy without entropy =     -307.13815787  energy(sigma->0) =     -307.13922395


--------------------------------------------------------------------------------------------------------




--------------------------------------- Iteration      1(  16)  ---------------------------------------


    POTLOK:  cpu time      0.1153: real time      0.1279
    SETDIJ:  cpu time      0.0075: real time      0.0077
    EDDIAG:  cpu time      0.4126: real time      0.4467
  RMM-DIIS:  cpu time      1.9309: real time      1.9535
    ORTHCH:  cpu time      0.1761: real time      0.1957
       DOS:  cpu time      0.0029: real time      0.0030
    CHARGE:  cpu time      0.1274: real time      0.1308
    MIXING:  cpu time      0.0018: real time      0.0018
    --------------------------------------------
      LOOP:  cpu time      2.7745: real time      2.8670

 eigenvalue-minimisations  :  2088
 total energy-change (2. order) : 0.7870963E+00  (-0.1308882E+00)
 number of electron     423.9995704 magnetization      40.2474041
 augmentation part      -12.2125676 magnetization      24.3521710

 Broyden mixing:
  rms(total) = 0.30230E+00    rms(broyden)= 0.30227E+00
  rms(prec ) = 0.36108E+00
  weight for this iteration     100.00

 eigenvalues of (default mixing * dielectric matrix)
  average eigenvalue GAMMA=   1.5927
  3.6151  1.0550  1.0550  0.6457

 Free energy of the ion-electron system (eV)
  ---------------------------------------------------
  alpha Z        PSCENC =       603.54932813
  Ewald energy   TEWEN  =    -19119.23326041
  -Hartree energ DENC   =     -5676.53127226
  -exchange      EXHF   =         0.00000000
  -V(xc)+E(xc)   XCENC  =       929.18842395
  PAW double counting   =     13854.03009986   -13797.19925112
  entropy T*S    EENTRO =        -0.02282042
  eigenvalues    EBANDS =     -1649.43024674
  atomic energy  EATOM  =     24549.29580527
  Solvation  Ediel_sol  =         0.00000000
  ---------------------------------------------------
  free energy    TOTEN  =      -306.35319374 eV

  energy without entropy =     -306.33037332  energy(sigma->0) =     -306.34178353


--------------------------------------------------------------------------------------------------------




--------------------------------------- Iteration      1(  17)  ---------------------------------------


    POTLOK:  cpu time      0.1156: real time      0.1284
    SETDIJ:  cpu time      0.0071: real time      0.0073
    EDDIAG:  cpu time      0.4135: real time      0.4476
  RMM-DIIS:  cpu time      2.0341: real time      2.0538
    ORTHCH:  cpu time      0.1317: real time      0.1511
       DOS:  cpu time      0.0032: real time      0.0032
    CHARGE:  cpu time      0.1316: real time      0.1357
    MIXING:  cpu time      0.0020: real time      0.0021
    --------------------------------------------
      LOOP:  cpu time      2.8389: real time      2.9291

 eigenvalue-minimisations  :  2086
 total energy-change (2. order) :-0.2068513E+00  (-0.7653922E-01)
 number of electron     423.9995576 magnetization      39.8449168
 augmentation part      -11.3361517 magnetization      23.3420309

 Broyden mixing:
  rms(total) = 0.40559E+00    rms(broyden)= 0.40557E+00
  rms(prec ) = 0.47711E+00
  weight for this iteration     100.00

 eigenvalues of (default mixing * dielectric matrix)
  average eigenvalue GAMMA=   1.7200
  4.2650  1.8170  0.9624  0.7777  0.7777

 Free energy of the ion-electron system (eV)
  ---------------------------------------------------
  alpha Z        PSCENC =       603.54932813
  Ewald energy   TEWEN  =    -19119.23326041
  -Hartree energ DENC   =     -5684.88432779
  -exchange      EXHF   =         0.00000000
  -V(xc)+E(xc)   XCENC  =       933.12041672
  PAW double counting   =     13998.17763105   -13951.74395072
  entropy T*S    EENTRO =        -0.06821437
  eigenvalues    EBANDS =     -1634.77347295
  atomic energy  EATOM  =     24549.29580527
  Solvation  Ediel_sol  =         0.00000000
  ---------------------------------------------------
  free energy    TOTEN  =      -306.56004507 eV

  energy without entropy =     -306.49183071  energy(sigma->0) =     -306.52593789


--------------------------------------------------------------------------------------------------------




--------------------------------------- Iteration      1(  18)  ---------------------------------------


    POTLOK:  cpu time      0.1174: real time      0.1300
    SETDIJ:  cpu time      0.0077: real time      0.0079
    EDDIAG:  cpu time      0.4162: real time      0.4500
  RMM-DIIS:  cpu time      1.8860: real time      1.9047
    ORTHCH:  cpu time      0.1336: real time      0.1527
       DOS:  cpu time      0.0030: real time      0.0030
    CHARGE:  cpu time      0.1269: real time      0.1298
    MIXING:  cpu time      0.0019: real time      0.0019
    --------------------------------------------
      LOOP:  cpu time      2.6927: real time      2.7801

 eigenvalue-minimisations  :  2046
 total energy-change (2. order) : 0.5008170E-01  (-0.4299570E-01)
 number of electron     423.9995774 magnetization      39.8646189
 augmentation part      -12.4786030 magnetization      24.0171314

 Broyden mixing:
  rms(total) = 0.28082E+00    rms(broyden)= 0.28081E+00
  rms(prec ) = 0.33330E+00
  weight for this iteration     100.00

 eigenvalues of (default mixing * dielectric matrix)
  average eigenvalue GAMMA=   1.8350
  4.8815  2.0297  1.6186  0.9890  0.7457  0.7457

 Free energy of the ion-electron system (eV)
  ---------------------------------------------------
  alpha Z        PSCENC =       603.54932813
  Ewald energy   TEWEN  =    -19119.23326041
  -Hartree energ DENC   =     -5685.96145591
  -exchange      EXHF   =         0.00000000
  -V(xc)+E(xc)   XCENC  =       931.27893490
  PAW double counting   =     14018.95354749   -13975.66928482
  entropy T*S    EENTRO =        -0.01254842
  eigenvalues    EBANDS =     -1628.71102960
  atomic energy  EATOM  =     24549.29580527
  Solvation  Ediel_sol  =         0.00000000
  ---------------------------------------------------
  free energy    TOTEN  =      -306.50996337 eV

  energy without entropy =     -306.49741495  energy(sigma->0) =     -306.50368916


--------------------------------------------------------------------------------------------------------




--------------------------------------- Iteration      1(  19)  ---------------------------------------


    POTLOK:  cpu time      0.1150: real time      0.1279
    SETDIJ:  cpu time      0.0071: real time      0.0073
    EDDIAG:  cpu time      0.4148: real time      0.4491
  RMM-DIIS:  cpu time      2.0333: real time      2.0524
    ORTHCH:  cpu time      0.1369: real time      0.1559
       DOS:  cpu time      0.0029: real time      0.0029
    CHARGE:  cpu time      0.1262: real time      0.1292
    MIXING:  cpu time      0.0021: real time      0.0021
    --------------------------------------------
      LOOP:  cpu time      2.8383: real time      2.9269

 eigenvalue-minimisations  :  2120
 total energy-change (2. order) : 0.3669949E-01  (-0.9264846E-02)
 number of electron     423.9995688 magnetization      39.9238060
 augmentation part      -11.9641603 magnetization      23.7570324

 Broyden mixing:
  rms(total) = 0.42877E-01    rms(broyden)= 0.42859E-01
  rms(prec ) = 0.55035E-01
  weight for this iteration     100.00

 eigenvalues of (default mixing * dielectric matrix)
  average eigenvalue GAMMA=   1.7977
  4.8831  2.6745  1.3854  1.1734  0.9669  0.7503  0.7503

 Free energy of the ion-electron system (eV)
  ---------------------------------------------------
  alpha Z        PSCENC =       603.54932813
  Ewald energy   TEWEN  =    -19119.23326041
  -Hartree energ DENC   =     -5677.35415562
  -exchange      EXHF   =         0.00000000
  -V(xc)+E(xc)   XCENC  =       932.17018893
  PAW double counting   =     14029.89433446   -13987.42627316
  entropy T*S    EENTRO =        -0.02820450
  eigenvalues    EBANDS =     -1637.34102697
  atomic energy  EATOM  =     24549.29580527
  Solvation  Ediel_sol  =         0.00000000
  ---------------------------------------------------
  free energy    TOTEN  =      -306.47326388 eV

  energy without entropy =     -306.44505938  energy(sigma->0) =     -306.45916163


--------------------------------------------------------------------------------------------------------




--------------------------------------- Iteration      1(  20)  ---------------------------------------


    POTLOK:  cpu time      0.1153: real time      0.1280
    SETDIJ:  cpu time      0.0075: real time      0.0077
    EDDIAG:  cpu time      0.4112: real time      0.4454
  RMM-DIIS:  cpu time      2.1442: real time      2.1644
    ORTHCH:  cpu time      0.1350: real time      0.1542
       DOS:  cpu time      0.0031: real time      0.0031
    CHARGE:  cpu time      0.1260: real time      0.1290
    MIXING:  cpu time      0.0021: real time      0.0021
    --------------------------------------------
      LOOP:  cpu time      2.9444: real time      3.0339

 eigenvalue-minimisations  :  2223
 total energy-change (2. order) : 0.4627901E-04  (-0.1047217E-02)
 number of electron     423.9995714 magnetization      39.9604018
 augmentation part      -12.1126924 magnetization      23.8841898

 Broyden mixing:
  rms(total) = 0.40256E-01    rms(broyden)= 0.40255E-01
  rms(prec ) = 0.47168E-01
  weight for this iteration     100.00

 eigenvalues of (default mixing * dielectric matrix)
  average eigenvalue GAMMA=   1.7639
  4.8796  2.8977  1.6350  1.1650  1.1650  0.7373  0.7373  0.8941

 Free energy of the ion-electron system (eV)
  ---------------------------------------------------
  alpha Z        PSCENC =       603.54932813
  Ewald energy   TEWEN  =    -19119.23326041
  -Hartree energ DENC   =     -5678.59339957
  -exchange      EXHF   =         0.00000000
  -V(xc)+E(xc)   XCENC  =       931.99787771
  PAW double counting   =     14029.62684165   -13987.17879070
  entropy T*S    EENTRO =        -0.02178448
  eigenvalues    EBANDS =     -1635.91583521
  atomic energy  EATOM  =     24549.29580527
  Solvation  Ediel_sol  =         0.00000000
  ---------------------------------------------------
  free energy    TOTEN  =      -306.47321760 eV

  energy without entropy =     -306.45143312  energy(sigma->0) =     -306.46232536


--------------------------------------------------------------------------------------------------------




--------------------------------------- Iteration      1(  21)  ---------------------------------------


    POTLOK:  cpu time      0.1151: real time      0.1277
    SETDIJ:  cpu time      0.0073: real time      0.0075
    EDDIAG:  cpu time      0.4263: real time      0.4604
  RMM-DIIS:  cpu time      2.0388: real time      2.0597
    ORTHCH:  cpu time      0.1392: real time      0.1583
       DOS:  cpu time      0.0030: real time      0.0031
    CHARGE:  cpu time      0.1260: real time      0.1290
    MIXING:  cpu time      0.0021: real time      0.0021
    --------------------------------------------
      LOOP:  cpu time      2.8579: real time      2.9478

 eigenvalue-minimisations  :  2154
 total energy-change (2. order) : 0.3510372E-03  (-0.5402693E-03)
 number of electron     423.9995697 magnetization      39.9449579
 augmentation part      -12.0141127 magnetization      23.8137961

 Broyden mixing:
  rms(total) = 0.20634E-01    rms(broyden)= 0.20631E-01
  rms(prec ) = 0.24874E-01
  weight for this iteration     100.00

 eigenvalues of (default mixing * dielectric matrix)
  average eigenvalue GAMMA=   1.9009
  4.8385  3.7376  2.3740  1.6040  0.7366  0.7366  1.0843  1.0843  0.9128

 Free energy of the ion-electron system (eV)
  ---------------------------------------------------
  alpha Z        PSCENC =       603.54932813
  Ewald energy   TEWEN  =    -19119.23326041
  -Hartree energ DENC   =     -5678.23540047
[...]
   -.995E-03 0.574E-03 0.179E-11   0.240E-02 -.138E-02 0.444E-15   -.586E-03 0.338E-03 0.624E-20   -.198E-05 0.114E-05 -.906E-14
   0.993E-03 -.573E-03 -.167E-11   -.241E-02 0.139E-02 -.119E-12   0.586E-03 -.338E-03 -.623E-20   0.198E-05 -.114E-05 0.227E-13
   -.993E-03 0.575E-03 -.350E-05   0.241E-02 -.138E-02 -.260E-04   -.586E-03 0.338E-03 0.600E-20   -.198E-05 0.114E-05 0.172E-10
   0.995E-03 -.572E-03 -.350E-05   -.240E-02 0.139E-02 -.260E-04   0.586E-03 -.338E-03 -.600E-20   0.198E-05 -.114E-05 0.172E-10
   0.407E-02 -.242E-02 -.282E+01   -.390E-02 0.291E-02 0.228E+01   -.105E-03 -.706E-03 0.540E+00   0.849E-07 0.216E-07 -.596E-06
   -.408E-02 0.243E-02 0.282E+01   0.391E-02 -.291E-02 -.228E+01   0.105E-03 0.706E-03 -.540E+00   -.849E-07 -.216E-07 0.596E-06
   0.881E-02 -.509E-02 0.132E-12   -.948E-02 0.548E-02 -.175E-12   0.966E-03 -.558E-03 -.103E-19   0.767E-07 -.443E-07 -.125E-14
   0.413E-02 -.232E-02 0.282E+01   -.447E-02 0.193E-02 -.228E+01   0.559E-03 0.444E-03 -.540E+00   0.238E-07 -.843E-07 0.596E-06
   -.880E-02 0.508E-02 -.180E-13   0.947E-02 -.547E-02 0.193E-12   -.966E-03 0.558E-03 0.103E-19   -.767E-07 0.443E-07 0.221E-14
   -.414E-02 0.232E-02 -.282E+01   0.448E-02 -.193E-02 0.228E+01   -.559E-03 -.444E-03 0.540E+00   -.238E-07 0.843E-07 -.596E-06
   0.407E-02 -.242E-02 -.282E+01   -.390E-02 0.292E-02 0.228E+01   -.105E-03 -.706E-03 0.540E+00   0.849E-07 0.216E-07 -.596E-06
   -.408E-02 0.242E-02 0.282E+01   0.391E-02 -.290E-02 -.228E+01   0.105E-03 0.706E-03 -.540E+00   -.849E-07 -.216E-07 0.596E-06
   0.881E-02 -.508E-02 0.570E-06   -.949E-02 0.546E-02 0.418E-05   0.966E-03 -.558E-03 -.103E-19   0.767E-07 -.443E-07 -.743E-12
   0.414E-02 -.232E-02 0.282E+01   -.447E-02 0.194E-02 -.228E+01   0.559E-03 0.444E-03 -.540E+00   0.238E-07 -.843E-07 0.596E-06
   -.881E-02 0.509E-02 0.570E-06   0.947E-02 -.548E-02 0.418E-05   -.966E-03 0.558E-03 0.102E-19   -.767E-07 0.443E-07 -.740E-12
   -.414E-02 0.232E-02 -.282E+01   0.448E-02 -.192E-02 0.228E+01   -.559E-03 -.444E-03 0.540E+00   -.238E-07 0.843E-07 -.596E-06
   0.408E-02 -.242E-02 -.282E+01   -.391E-02 0.290E-02 0.228E+01   -.105E-03 -.706E-03 0.540E+00   0.849E-07 0.216E-07 -.596E-06
   -.407E-02 0.242E-02 0.282E+01   0.390E-02 -.292E-02 -.228E+01   0.105E-03 0.706E-03 -.540E+00   -.849E-07 -.216E-07 0.596E-06
   0.881E-02 -.509E-02 -.570E-06   -.947E-02 0.548E-02 -.418E-05   0.966E-03 -.558E-03 -.103E-19   0.767E-07 -.443E-07 0.741E-12
   0.414E-02 -.232E-02 0.282E+01   -.448E-02 0.192E-02 -.228E+01   0.559E-03 0.444E-03 -.540E+00   0.238E-07 -.843E-07 0.596E-06
   -.881E-02 0.508E-02 -.570E-06   0.949E-02 -.546E-02 -.418E-05   -.966E-03 0.558E-03 0.103E-19   -.767E-07 0.443E-07 0.744E-12
   -.414E-02 0.232E-02 -.282E+01   0.447E-02 -.194E-02 0.228E+01   -.559E-03 -.444E-03 0.540E+00   -.238E-07 0.843E-07 -.596E-06
   0.408E-02 -.243E-02 -.282E+01   -.391E-02 0.291E-02 0.228E+01   -.105E-03 -.706E-03 0.540E+00   0.849E-07 0.216E-07 -.596E-06
   -.407E-02 0.242E-02 0.282E+01   0.390E-02 -.291E-02 -.228E+01   0.105E-03 0.706E-03 -.540E+00   -.849E-07 -.216E-07 0.596E-06
   0.880E-02 -.508E-02 0.378E-13   -.947E-02 0.547E-02 -.171E-12   0.966E-03 -.558E-03 -.104E-19   0.767E-07 -.443E-07 -.135E-14
   0.414E-02 -.232E-02 0.282E+01   -.448E-02 0.193E-02 -.228E+01   0.559E-03 0.444E-03 -.540E+00   0.238E-07 -.843E-07 0.596E-06
   -.881E-02 0.509E-02 -.195E-12   0.948E-02 -.548E-02 0.184E-12   -.966E-03 0.558E-03 0.103E-19   -.767E-07 0.443E-07 0.195E-14
   -.413E-02 0.232E-02 -.282E+01   0.447E-02 -.193E-02 0.228E+01   -.559E-03 -.444E-03 0.540E+00   -.238E-07 0.843E-07 -.596E-06
 -----------------------------------------------------------------------------------------------
   0.981E-09 0.197E-08 -.127E-11   -.200E-12 -.265E-12 0.295E-12   -.266E-14 0.446E-15 0.000E+00   -.422E-12 0.367E-12 0.666E-12
 
 
 POSITION                                       TOTAL-FORCE (eV/Angst)
 -----------------------------------------------------------------------------------
     -4.24863     10.77615      1.47165        -0.175103     -0.032971      0.083747
     -0.95203      1.77468      1.47126         0.116627     -0.134490      0.084089
      5.19542      9.12559      1.47218         0.058781      0.168965      0.083460
     10.50534      0.06079      9.92970         0.175103      0.032971     -0.083747
      7.20874      9.06226      9.93009        -0.116627      0.134490     -0.084089
      1.06130      1.71135      9.92917        -0.058781     -0.168965     -0.083460
      2.01294      0.06286      7.17193        -0.174785      0.033757      0.084089
     11.45674      1.70865      7.17232         0.058997     -0.168129      0.083747
      5.30529      9.06216      7.17285         0.116938      0.135388      0.083460
      4.24377     10.77409      4.22941         0.174785     -0.033757     -0.084089
     -5.20003      9.12829      4.22902        -0.058997      0.168129     -0.083747
      0.95142      1.77478      4.22850        -0.116938     -0.135388     -0.083460
     -1.11781      5.35625      1.47165        -0.175103     -0.032971      0.083747
     -4.08286      7.19458      1.47126         0.116627     -0.134490      0.084089
      8.32624      3.70570      1.47218         0.058781      0.168965      0.083460
      7.37452      5.48069      9.92970         0.175103      0.032971     -0.083747
     10.33957      3.64236      9.93009        -0.116627      0.134490     -0.084089
     -2.06953      7.13125      9.92917        -0.058781     -0.168965     -0.083460
     -1.11789      5.48275      7.17193        -0.174785      0.033757      0.084089
      8.32591      7.12855      7.17232         0.058997     -0.168129      0.083747
      8.43612      3.64226      7.17285         0.116938      0.135388      0.083460
      7.37460      5.35419      4.22941         0.174785     -0.033757     -0.084089
     -2.06920      3.70839      4.22902        -0.058997      0.168129     -0.083747
     -2.17941      7.19468      4.22850        -0.116938     -0.135388     -0.083460
      2.01055     10.77472      1.47165        -0.175103     -0.032971      0.083747
      5.30715      1.77325      1.47126         0.116627     -0.134490      0.084089
     -1.06377      9.12702      1.47218         0.058781      0.168965      0.083460
      4.24616      0.06222      9.92970         0.175103      0.032971     -0.083747
      0.94956      9.06369      9.93009        -0.116627      0.134490     -0.084089
      7.32048      1.70992      9.92917        -0.058781     -0.168965     -0.083460
      8.27212      0.06143      7.17193        -0.174785      0.033757      0.084089
      5.19755      1.71008      7.17232         0.058997     -0.168129      0.083747
     -0.95390      9.06359      7.17285         0.116938      0.135388      0.083460
     -2.01541     10.77551      4.22941         0.174785     -0.033757     -0.084089
      1.05916      9.12686      4.22902        -0.058997      0.168129     -0.083747
      7.21061      1.77335      4.22850        -0.116938     -0.135388     -0.083460
      5.14138      5.35483      1.47165        -0.175103     -0.032971      0.083747
      2.17632      7.19315      1.47126         0.116627     -0.134490      0.084089
      2.06706      3.70712      1.47218         0.058781      0.168965      0.083460
      1.11533      5.48212      9.92970         0.175103      0.032971     -0.083747
      4.08039      3.64379      9.93009        -0.116627      0.134490     -0.084089
      4.18965      7.12982      9.92917        -0.058781     -0.168965     -0.083460
      5.14129      5.48133      7.17193        -0.174785      0.033757      0.084089
      2.06672      7.12998      7.17232         0.058997     -0.168129      0.083747
      2.17693      3.64369      7.17285         0.116938      0.135388      0.083460
      1.11542      5.35561      4.22941         0.174785     -0.033757     -0.084089
      4.18999      3.70696      4.22902        -0.058997      0.168129     -0.083747
      4.07978      7.19325      4.22850        -0.116938     -0.135388     -0.083460
     12.51829     -0.00281      2.85034         0.000822     -0.000475     -0.000000
     -6.26157     10.83975      8.55101        -0.000822      0.000475     -0.000000
      9.38746      5.41709      2.85034         0.000822     -0.000475     -0.000000
     -3.13075      5.41985      8.55101        -0.000822      0.000475     -0.000000
      6.25910     -0.00138      2.85034         0.000822     -0.000475     -0.000000
     -0.00239     10.83832      8.55101        -0.000822      0.000475     -0.000000
      3.12827      5.41852      2.85034         0.000822     -0.000475     -0.000000
      3.12844      5.41842      8.55101        -0.000822      0.000475     -0.000000
     -0.00095      3.61248     11.04076         0.000062     -0.000218     -0.000501
      6.25766      7.22446      0.36059        -0.000062      0.000218      0.000501
      3.12673      9.03172      2.85034         0.000294     -0.000170     -0.000000
     -0.00062      3.61305      6.06126         0.000220      0.000055      0.000501
      3.12998      1.80522      8.55101        -0.000294      0.000170     -0.000000
      6.25733      7.22389      5.34009        -0.000220     -0.000055     -0.000501
     -3.13178      9.03238     11.04076         0.000062     -0.000218     -0.000501
      9.38849      1.80456      0.36058        -0.000062      0.000218      0.000501
      6.25756      3.61182      2.85034         0.000294     -0.000170     -0.000000
     -3.13145      9.03295      6.06126         0.000220      0.000055      0.000501
     -0.00085      7.22512      8.55101        -0.000294      0.000170     -0.000000
      9.38816      1.80399      5.34009        -0.000220     -0.000055     -0.000501
      6.25823      3.61106     11.04076         0.000062     -0.000218     -0.000501
     -0.00152      7.22589      0.36058        -0.000062      0.000218      0.000501
     -3.13245      9.03315      2.85034         0.000294     -0.000170     -0.000000
      6.25856      3.61162      6.06126         0.000220      0.000055      0.000501
      9.38916      1.80379      8.55101        -0.000294      0.000170     -0.000000
     -0.00185      7.22532      5.34009        -0.000220     -0.000055     -0.000501
      3.12740      9.03095     11.04076         0.000062     -0.000218     -0.000501
      3.12931      1.80599      0.36058        -0.000062      0.000218      0.000501
     -0.00162      3.61325      2.85034         0.000294     -0.000170     -0.000000
      3.12773      9.03152      6.06126         0.000220      0.000055      0.000501
      6.25833      7.22369      8.55101        -0.000294      0.000170     -0.000000
      3.12898      1.80542      5.34009        -0.000220     -0.000055     -0.000501
 -----------------------------------------------------------------------------------
    total drift:                                0.000000      0.000000     -0.000000


--------------------------------------------------------------------------------------------------------



  FREE ENERGIE OF THE ION-ELECTRON SYSTEM (eV)
  ---------------------------------------------------
  free  energy   TOTEN  =      -306.47295413 eV

  energy  without entropy=     -306.44971471  energy(sigma->0) =     -306.46133442
 


--------------------------------------------------------------------------------------------------------


    POTLOK:  cpu time      0.1318: real time      0.1440


--------------------------------------------------------------------------------------------------------


     LOOP+:  cpu time     82.1828: real time     84.5235
    4ORBIT:  cpu time      0.0000: real time      0.0000



 total charge

# of ion       s       p       d       tot
------------------------------------------
    1        1.596   3.545   0.000   5.140
    2        1.596   3.545   0.000   5.140
    3        1.596   3.544   0.000   5.140
    4        1.596   3.545   0.000   5.140
    5        1.596   3.545   0.000   5.140
    6        1.596   3.544   0.000   5.140
    7        1.596   3.545   0.000   5.140
    8        1.596   3.545   0.000   5.140
    9        1.596   3.544   0.000   5.140
   10        1.596   3.545   0.000   5.140
   11        1.596   3.545   0.000   5.140
   12        1.596   3.544   0.000   5.140
   13        1.596   3.545   0.000   5.140
   14        1.596   3.545   0.000   5.140
   15        1.596   3.544   0.000   5.140
   16        1.596   3.545   0.000   5.140
   17        1.596   3.545   0.000   5.140
   18        1.596   3.544   0.000   5.140
   19        1.596   3.545   0.000   5.140
   20        1.596   3.545   0.000   5.140
   21        1.596   3.544   0.000   5.140
   22        1.596   3.545   0.000   5.140
   23        1.596   3.545   0.000   5.140
   24        1.596   3.544   0.000   5.140
   25        1.596   3.545   0.000   5.140
   26        1.596   3.545   0.000   5.140
   27        1.596   3.544   0.000   5.140
   28        1.596   3.545   0.000   5.140
   29        1.596   3.545   0.000   5.140
   30        1.596   3.544   0.000   5.140
   31        1.596   3.545   0.000   5.140
   32        1.596   3.545   0.000   5.140
   33        1.596   3.544   0.000   5.140
   34        1.596   3.545   0.000   5.140
   35        1.596   3.545   0.000   5.140
   36        1.596   3.544   0.000   5.140
   37        1.596   3.545   0.000   5.140
   38        1.596   3.545   0.000   5.140
   39        1.596   3.544   0.000   5.140
   40        1.596   3.545   0.000   5.140
   41        1.596   3.545   0.000   5.140
   42        1.596   3.544   0.000   5.140
   43        1.596   3.545   0.000   5.140
   44        1.596   3.545   0.000   5.140
   45        1.596   3.544   0.000   5.140
   46        1.596   3.545   0.000   5.140
   47        1.596   3.545   0.000   5.140
   48        1.596   3.544   0.000   5.140
   49        0.309   0.361   5.791   6.461
   50        0.309   0.361   5.791   6.461
   51        0.309   0.361   5.791   6.461
   52        0.309   0.361   5.791   6.461
   53        0.309   0.361   5.791   6.461
   54        0.309   0.361   5.791   6.461
   55        0.309   0.361   5.791   6.461
   56        0.309   0.361   5.791   6.461
   57        0.060   0.110   0.000   0.170
   58        0.060   0.110   0.000   0.170
   59        0.072   0.141   0.000   0.213
   60        0.060   0.110   0.000   0.170
   61        0.072   0.141   0.000   0.213
   62        0.060   0.110   0.000   0.170
   63        0.060   0.110   0.000   0.170
   64        0.060   0.110   0.000   0.170
   65        0.072   0.141   0.000   0.213
   66        0.060   0.110   0.000   0.170
   67        0.072   0.141   0.000   0.213
   68        0.060   0.110   0.000   0.170
   69        0.060   0.110   0.000   0.170
   70        0.060   0.110   0.000   0.170
   71        0.072   0.141   0.000   0.213
   72        0.060   0.110   0.000   0.170
   73        0.072   0.141   0.000   0.213
   74        0.060   0.110   0.000   0.170
   75        0.060   0.110   0.000   0.170
   76        0.060   0.110   0.000   0.170
   77        0.072   0.141   0.000   0.213
   78        0.060   0.110   0.000   0.170
   79        0.072   0.141   0.000   0.213
   80        0.060   0.110   0.000   0.170
--------------------------------------------------
tot         80.606 175.912  46.331 302.849



 magnetization (x)

# of ion       s       p       d       tot
------------------------------------------
    1        0.006   0.121   0.000   0.127
    2        0.006   0.121   0.000   0.127
    3        0.006   0.121   0.000   0.127
    4        0.006   0.121   0.000   0.127
    5        0.006   0.121   0.000   0.127
    6        0.006   0.121   0.000   0.127
    7        0.006   0.121   0.000   0.127
    8        0.006   0.121   0.000   0.127
    9        0.006   0.121   0.000   0.127
   10        0.006   0.121   0.000   0.127
   11        0.006   0.121   0.000   0.127
   12        0.006   0.121   0.000   0.127
   13        0.006   0.121   0.000   0.127
   14        0.006   0.121   0.000   0.127
   15        0.006   0.121   0.000   0.127
   16        0.006   0.121   0.000   0.127
   17        0.006   0.121   0.000   0.127
   18        0.006   0.121   0.000   0.127
   19        0.006   0.121   0.000   0.127
   20        0.006   0.121   0.000   0.127
   21        0.006   0.121   0.000   0.127
   22        0.006   0.121   0.000   0.127
   23        0.006   0.121   0.000   0.127
   24        0.006   0.121   0.000   0.127
   25        0.006   0.121   0.000   0.127
   26        0.006   0.121   0.000   0.127
   27        0.006   0.121   0.000   0.127
   28        0.006   0.121   0.000   0.127
   29        0.006   0.121   0.000   0.127
   30        0.006   0.121   0.000   0.127
   31        0.006   0.121   0.000   0.127
   32        0.006   0.121   0.000   0.127
   33        0.006   0.121   0.000   0.127
   34        0.006   0.121   0.000   0.127
   35        0.006   0.121   0.000   0.127
   36        0.006   0.121   0.000   0.127
   37        0.006   0.121   0.000   0.127
   38        0.006   0.121   0.000   0.127
   39        0.006   0.121   0.000   0.127
   40        0.006   0.121   0.000   0.127
   41        0.006   0.121   0.000   0.127
   42        0.006   0.121   0.000   0.127
   43        0.006   0.121   0.000   0.127
   44        0.006   0.121   0.000   0.127
   45        0.006   0.121   0.000   0.127
   46        0.006   0.121   0.000   0.127
   47        0.006   0.121   0.000   0.127
   48        0.006   0.121   0.000   0.127
   49        0.019   0.016   3.842   3.877
   50        0.019   0.016   3.842   3.877
   51        0.019   0.016   3.842   3.877
   52        0.019   0.016   3.842   3.877
   53        0.019   0.016   3.842   3.877
   54        0.019   0.016   3.842   3.877
   55        0.019   0.016   3.842   3.877
   56        0.019   0.016   3.842   3.877
   57        0.002   0.004   0.000   0.006
   58        0.002   0.004   0.000   0.006
   59        0.001   0.001   0.000   0.003
   60        0.002   0.004   0.000   0.006
   61        0.001   0.001   0.000   0.003
   62        0.002   0.004   0.000   0.006
   63        0.002   0.004   0.000   0.006
   64        0.002   0.004   0.000   0.006
   65        0.001   0.001   0.000   0.003
   66        0.002   0.004   0.000   0.006
   67        0.001   0.001   0.000   0.003
   68        0.002   0.004   0.000   0.006
   69        0.002   0.004   0.000   0.006
   70        0.002   0.004   0.000   0.006
   71        0.001   0.001   0.000   0.003
   72        0.002   0.004   0.000   0.006
   73        0.001   0.001   0.000   0.003
   74        0.002   0.004   0.000   0.006
   75        0.002   0.004   0.000   0.006
   76        0.002   0.004   0.000   0.006
   77        0.001   0.001   0.000   0.003
   78        0.002   0.004   0.000   0.006
   79        0.001   0.001   0.000   0.003
   80        0.002   0.004   0.000   0.006
--------------------------------------------------
tot          0.472   6.008  30.734  37.215
 

 total amount of memory used by VASP MPI-rank0   103508. kBytes
=======================================================================

   base      :      30000. kBytes
   nonl-proj :      48209. kBytes
   fftplans  :       1149. kBytes
   grid      :      18885. kBytes
   one-center:       2488. kBytes
   wavefun   :       2777. kBytes
 
  
  
 General timing and accounting informations for this job:
 ========================================================
  
                  Total CPU time used (sec):       88.802
                            User time (sec):       84.977
                          System time (sec):        3.825
                         Elapsed time (sec):       92.085
  
                   Maximum memory used (kb):      275756.
                   Average memory used (kb):          N/A
  
                          Minor page faults:       140436
                          Major page faults:            1
                 Voluntary context switches:         1816
